<?xml version="1.0"?>
<VTKFile type="UnstructuredGrid"  version="0.1"  >
<UnstructuredGrid>
<Piece  NumberOfPoints="14188" NumberOfCells="27962">
<Points>
<DataArray  type="Float64"  NumberOfComponents="3"  format="ascii">0 0 0  0.1 0 0  0.1 0.025 0  0.1 0.1 0  0 0.1 0  0 0.025 0  0.0009708737864059995 0 0  0.001941747572812032 0 0  0.002912621359218002 0 0  0.003883495145623847 0 0  0.004854368932029464 0 0  0.005825242718435229 0 0  0.006796116504841381 0 0  0.007766990291247783 0 0  0.008737864077654372 0 0  0.009708737864060617 0 0  0.01067961165046709 0 0  0.01165048543687344 0 0  0.01262135922327924 0 0  0.01359223300968451 0 0  0.01456310679608949 0 0  0.01553398058249447 0 0  0.01650485436889945 0 0  0.01747572815530442 0 0  0.01844660194170899 0 0  0.01941747572811313 0 0  0.02038834951451801 0 0  0.02135922330092299 0 0  0.02233009708732796 0 0  0.02330097087373294 0 0  0.02427184466013792 0 0  0.0252427184465429 0 0  0.02621359223294788 0 0  0.02718446601935286 0 0  0.02815533980575783 0 0  0.02912621359216281 0 0  0.03009708737856779 0 0  0.03106796116497276 0 0  0.03203883495137774 0 0  0.03300970873778272 0 0  0.0339805825241877 0 0  0.03495145631059268 0 0  0.03592233009699766 0 0  0.03689320388340233 0 0  0.03786407766980563 0 0  0.03883495145620989 0 0  0.03980582524261487 0 0  0.04077669902901984 0 0  0.04174757281542482 0 0  0.0427184466018298 0 0  0.04368932038823478 0 0  0.04466019417463976 0 0  0.04563106796104474 0 0  0.04660194174744971 0 0  0.04757281553385469 0 0  0.04854368932025967 0 0  0.04951456310666516 0 0  0.05048543689307267 0 0  0.05145631067948219 0 0  0.05242718446589358 0 0  0.05339805825230361 0 0  0.05436893203871364 0 0  0.05533980582512367 0 0  0.05631067961153505 0 0  0.05728155339794509 0 0  0.05825242718435512 0 0  0.05922330097076515 0 0  0.06019417475717655 0 0  0.06116504854358656 0 0  0.06213592232999661 0 0  0.06310679611640664 0 0  0.06407766990281805 0 0  0.06504854368922906 0 0  0.06601941747563742 0 0  0.06699029126204779 0 0  0.06796116504845949 0 0  0.06893203883487058 0 0  0.06990291262127893 0 0  0.07087378640768921 0 0  0.07184466019410093 0 0  0.07281553398051209 0 0  0.07378640776692046 0 0  0.07475728155333065 0 0  0.07572815533974236 0 0  0.0766990291261509 0 0  0.07766990291256039 0 0  0.0786407766989721 0 0  0.07961165048538382 0 0  0.08058252427179241 0 0  0.08155339805820183 0 0  0.08252427184461353 0 0  0.08349514563102525 0 0  0.08446601941743394 0 0  0.08543689320384328 0 0  0.08640776699025497 0 0  0.08737864077666668 0 0  0.08834951456307545 0 0  0.08932038834948469 0 0  0.09029126213589642 0 0  0.09126213592230813 0 0  0.09223300970871696 0 0  0.09320388349512614 0 0  0.09417475728153785 0 0  0.09514563106794956 0 0  0.09611650485435849 0 0  0.09708737864076758 0 0  0.09805825242717928 0 0  0.099029126213591 0 0  0.1 0.000961538461536675 0  0.1 0.00192307692307336 0  0.1 0.002884615384610488 0  0.1 0.003846153846146502 0  0.1 0.004807692307681929 0  0.1 0.005769230769217563 0  0.1 0.006730769230753263 0  0.1 0.007692307692288962 0  0.1 0.008653846153824661 0  0.1 0.009615384615359684 0  0.1 0.01057692307689538 0  0.1 0.01153846153843108 0  0.1 0.01249999999996712 0  0.1 0.01346153846150783 0  0.1 0.01442307692304887 0  0.1 0.01538461538458991 0  0.1 0.01634615384613107 0  0.1 0.01730769230767213 0  0.1 0.0182692307692132 0  0.1 0.01923076923075359 0  0.1 0.02019230769229466 0  0.1 0.02115384615383573 0  0.1 0.02211538461537679 0  0.1 0.02307692307691786 0  0.1 0.02403846153845893 0  0.09902912621359493 0.025 0  0.09805825242718984 0.025 0  0.09708737864078476 0.025 0  0.09611650485437967 0.025 0  0.09514563106797458 0.025 0  0.0941747572815695 0.025 0  0.09320388349516442 0.025 0  0.09223300970875933 0.025 0  0.09126213592235424 0.025 0  0.09029126213594917 0.025 0  0.08932038834954407 0.025 0  0.088349514563139 0.025 0  0.08737864077673391 0.025 0  0.08640776699032883 0.025 0  0.08543689320392374 0.025 0  0.08446601941751866 0.025 0  0.08349514563111357 0.025 0  0.08252427184470849 0.025 0  0.08155339805830342 0.025 0  0.08058252427189833 0.025 0  0.07961165048549325 0.025 0  0.07864077669908817 0.025 0  0.07766990291268308 0.025 0  0.076699029126278 0.025 0  0.07572815533987293 0.025 0  0.07475728155346784 0.025 0  0.07378640776706276 0.025 0  0.07281553398065768 0.025 0  0.07184466019425259 0.025 0  0.07087378640784751 0.025 0  0.06990291262144242 0.025 0  0.06893203883503735 0.025 0  0.06796116504863225 0.025 0  0.06699029126222718 0.025 0  0.0660194174758221 0.025 0  0.06504854368941701 0.025 0  0.06407766990301192 0.025 0  0.06310679611660686 0.025 0  0.06213592233020176 0.025 0  0.06116504854379668 0.025 0  0.0601941747573916 0.025 0  0.05922330097098652 0.025 0  0.05825242718458144 0.025 0  0.05728155339817635 0.025 0  0.05631067961177127 0.025 0  0.05533980582536619 0.025 0  0.05436893203896111 0.025 0  0.05339805825255602 0.025 0  0.05242718446615095 0.025 0  0.05145631067974586 0.025 0  0.05048543689334026 0.025 0  0.04951456310693265 0.025 0  0.04854368932052303 0.025 0  0.04757281553411154 0.025 0  0.04660194174770141 0.025 0  0.04563106796129127 0.025 0  0.04466019417488113 0.025 0  0.04368932038846964 0.025 0  0.04271844660205951 0.025 0  0.04174757281564937 0.025 0  0.04077669902923923 0.025 0  0.03980582524282773 0.025 0  0.0388349514564176 0.025 0  0.03786407767000746 0.025 0  0.03689320388359732 0.025 0  0.0359223300971858 0.025 0  0.03495145631077469 0.025 0  0.03398058252436624 0.025 0  0.03300970873795576 0.025 0  0.03203883495154394 0.025 0  0.03106796116513276 0.025 0  0.03009708737872431 0.025 0  0.0291262135923139 0.025 0  0.0281553398059021 0.025 0  0.02718446601949084 0.025 0  0.02621359223308238 0.025 0  0.02524271844667206 0.025 0  0.02427184466026025 0.025 0  0.02330097087385159 0.025 0  0.02233009708744202 0.025 0  0.02135922330103021 0.025 0  0.02038834951461838 0.025 0  0.01941747572820966 0.025 0  0.01844660194180016 0.025 0  0.01747572815538834 0.025 0  0.01650485436897653 0.025 0  0.01553398058256773 0.025 0  0.0145631067961583 0.025 0  0.01359223300974649 0.025 0  0.01262135922333467 0.025 0  0.01165048543692579 0.025 0  0.01067961165051645 0.025 0  0.00970873786410463 0.025 0  0.008737864077692822 0.025 0  0.007766990291283873 0.025 0  0.006796116504874591 0.025 0  0.00582524271846277 0.025 0  0.004854368932050962 0.025 0  0.00388349514564193 0.025 0  0.002912621359232731 0.025 0  0.001941747572820923 0.025 0  0.0009708737864091155 0.025 0  0 0.0240384615384642 0  0 0.02307692307692839 0  0 0.02211538461539259 0  0 0.02115384615385678 0  0 0.02019230769232098 0  0 0.01923076923078518 0  0 0.01826923076924938 0  0 0.01730769230771357 0  0 0.01634615384617777 0  0 0.01538461538464197 0  0 0.01442307692310616 0  0 0.01346153846157036 0  0 0.01250000000003422 0  0 0.01153846153849341 0  0 0.01057692307695227 0  0 0.009615384615411119 0  0 0.008653846153869865 0  0 0.007692307692328693 0  0 0.006730769230787522 0  0 0.005769230769247024 0  0 0.004807692307705856 0  0 0.003846153846164685 0  0 0.002884615384623514 0  0 0.001923076923082339 0  0 0.0009615384615411712 0  0.1 0.02597402597402482 0  0.1 0.02694805194804942 0  0.1 0.02792207792207379 0  0.1 0.02889610389609749 0  0.1 0.02987012987012186 0  0.1 0.03084415584414623 0  0.1 0.03181818181816949 0  0.1 0.0327922077921949 0  0.1 0.03376623376622136 0  0.1 0.03474025974024465 0  0.1 0.03571428571426615 0  0.1 0.03668831168828843 0  0.1 0.03766233766231168 0  0.1 0.03863636363633492 0  0.1 0.03961038961035817 0  0.1 0.04058441558438142 0  0.1 0.04155844155840295 0  0.1 0.04253246753242519 0  0.1 0.04350649350644843 0  0.1 0.04448051948047168 0  0.1 0.04545454545449493 0  0.1 0.04642857142851604 0  0.1 0.0474025974025387 0  0.1 0.04837662337656194 0  0.1 0.04935064935058519 0  0.1 0.05032467532460844 0  0.1 0.05129870129863168 0  0.1 0.05227272727265492 0  0.1 0.05324675324667816 0  0.1 0.05422077922070141 0  0.1 0.05519480519472465 0  0.1 0.05616883116874789 0  0.1 0.05714285714277114 0  0.1 0.05811688311679233 0  0.1 0.05909090909081493 0  0.1 0.06006493506483818 0  0.1 0.06103896103886142 0  0.1 0.06201298701288513 0  0.1 0.06298701298691288 0  0.1 0.06396103896093791 0  0.1 0.06493506493496881 0  0.1 0.06590909090899885 0  0.1 0.0668831168830239 0  0.1 0.06785714285705435 0  0.1 0.06883116883108209 0  0.1 0.06980519480510985 0  0.1 0.07077922077914031 0  0.1 0.07175324675316808 0  0.1 0.07272727272719581 0  0.1 0.07370129870122627 0  0.1 0.07467532467525403 0  0.1 0.07564935064928179 0  0.1 0.07662337662331226 0  0.1 0.07759740259733793 0  0.1 0.0785714285713662 0  0.1 0.07954545454539821 0  0.1 0.08051948051942392 0  0.1 0.08149350649345213 0  0.1 0.08246753246748417 0  0.1 0.08344155844150992 0  0.1 0.08441558441553806 0  0.1 0.08538961038957014 0  0.1 0.08636363636359592 0  0.1 0.08733766233762399 0  0.1 0.08831168831165626 0  0.1 0.08928571428568463 0  0.1 0.09025974025970993 0  0.1 0.09123376623374199 0  0.1 0.09220779220776523 0  0.1 0.09318181818179586 0  0.1 0.09415584415582798 0  0.1 0.09512987012985125 0  0.1 0.09610389610388181 0  0.1 0.09707792207791402 0  0.1 0.09805194805193723 0  0.1 0.09902597402596774 0  0.09902912621359493 0.1 0  0.09805825242718984 0.1 0  0.09708737864078476 0.1 0  0.09611650485437967 0.1 0  0.09514563106797458 0.1 0  0.0941747572815695 0.1 0  0.09320388349516442 0.1 0  0.09223300970875933 0.1 0  0.09126213592235424 0.1 0  0.09029126213594917 0.1 0  0.08932038834954407 0.1 0  0.088349514563139 0.1 0  0.08737864077673391 0.1 0  0.08640776699032883 0.1 0  0.08543689320392374 0.1 0  0.08446601941751866 0.1 0  0.08349514563111357 0.1 0  0.08252427184470849 0.1 0  0.08155339805830342 0.1 0  0.08058252427189833 0.1 0  0.07961165048549325 0.1 0  0.07864077669908817 0.1 0  0.07766990291268308 0.1 0  0.076699029126278 0.1 0  0.07572815533987293 0.1 0  0.07475728155346784 0.1 0  0.07378640776706276 0.1 0  0.07281553398065768 0.1 0  0.07184466019425259 0.1 0  0.07087378640784751 0.1 0  0.06990291262144242 0.1 0  0.0689320388
[...]
<PointData  Scalars="f_12"> 
<DataArray  type="Float64"  Name="f_12"  format="ascii">3.2418446270661375e-03  0.0000000000000000e+00  7.6329398342385661e-07  0.0000000000000000e+00  0.0000000000000000e+00  1.0000000000000000e+00  3.2549417492259880e-03  3.2517718249311109e-03  3.2526683842899820e-03  3.2551466617670873e-03  3.2453341672205285e-03  3.2604395274493979e-03  3.2432445400661035e-03  3.2498848789361714e-03  3.2425086155163456e-03  3.2497295503069140e-03  3.2535640410785156e-03  3.2365270581900282e-03  3.2601695663923786e-03  3.2441267265897310e-03  3.2452117219758359e-03  3.2385848629579734e-03  3.2498744223005264e-03  3.2519112206874745e-03  3.2353789579478145e-03  3.2489670774395120e-03  3.2429670479087254e-03  3.2366997833376578e-03  3.2365740623558417e-03  3.2380924361468510e-03  3.2376899159804510e-03  3.2260286174611470e-03  3.2201486805382394e-03  3.2084607208860564e-03  3.2017700968396913e-03  3.2128649198432096e-03  3.1850272720643381e-03  3.1798245841211043e-03  3.1633616942463691e-03  3.1423323061085980e-03  3.1152562175489075e-03  3.0949178177118444e-03  3.0624845026993889e-03  3.0235259058663216e-03  2.9872703642151656e-03  2.9405539612869899e-03  2.8818156258511004e-03  2.8057120306405141e-03  2.7491274453442243e-03  2.6649879504077427e-03  2.5846890711828203e-03  2.4852276134547540e-03  2.3817011415052376e-03  2.2750090794805846e-03  2.1505838019337626e-03  2.0365006098470636e-03  1.9140363453776349e-03  1.7874628208633648e-03  1.6566749321764674e-03  1.5186413999652925e-03  1.3969217240038011e-03  1.2717493069374342e-03  1.1503014614596531e-03  1.0333928963509001e-03  9.2293266647615346e-04  8.1921357365317277e-04  7.2361343201849087e-04  6.3451840655992379e-04  5.5233365919490126e-04  4.7968874728132371e-04  4.1440651844066087e-04  3.5573207445637687e-04  3.0314709003133073e-04  2.5852544691134274e-04  2.1899846825175275e-04  1.8467338719273227e-04  1.5493556025021165e-04  1.2949002145317835e-04  1.0843818325928413e-04  8.9633649640775176e-05  7.4388160298113467e-05  6.1452815379242756e-05  5.0626883913220801e-05  4.1560516666166815e-05  3.4013854379173835e-05  2.7798001549754656e-05  2.2659700935341152e-05  1.8427768849263296e-05  1.4938449312769176e-05  1.2139241585340744e-05  9.8142805236221194e-06  7.9177323801652118e-06  6.3833467827643846e-06  5.1375986457106477e-06  4.1278151077364117e-06  3.3128182816482131e-06  2.6543996592304769e-06  2.1231958938193456e-06  1.6963036735823447e-06  1.3528900033745529e-06  1.0774773597300894e-06  8.5431046418567150e-07  6.7338198891056007e-07  5.2483913765202937e-07  3.9978586799515746e-07  2.9053041744165513e-07  1.9245498314447929e-07  9.5707457175309961e-08  0.0000000000000000e+00  0.0000000000000000e+00  0.0000000000000000e+00  1.7746222819616829e-07  2.5496856825305295e-07  3.0911700700270521e-07  3.5166363397142610e-07  3.8785164161904571e-07  4.1926697159439472e-07  4.5034138227893973e-07  4.8116442852580827e-07  5.1029735515779647e-07  5.3887053085327417e-07  5.6661660548441951e-07  5.9445321887849059e-07  6.2172930262210198e-07  6.4361104948210058e-07  6.6971455224646549e-07  6.9210426027915782e-07  7.1027999027036915e-07  7.2715924709817882e-07  7.4208319846141632e-07  7.5224627515700234e-07  7.5973814099820363e-07  7.6495441429760513e-07  7.9128617158414692e-07  8.7218609766853881e-07  1.0058953908637841e-06  1.2127376939795998e-06  1.5006873306664185e-06  1.8898503214179951e-06  2.4082806878350489e-06  3.0893160146043513e-06  3.9765542447301600e-06  5.1374893920410015e-06  6.6532338790901953e-06  8.6216826744299433e-06  1.1192412544844974e-05  1.4528548528166503e-05  1.8852500102673823e-05  2.4546884648942254e-05  3.1823523364236189e-05  4.1433978235058267e-05  5.3856416546763107e-05  7.0025889104208979e-05  9.1143919689485123e-05  1.1872560844518609e-04  1.5475428034295033e-04  2.0177104626971931e-04  2.6309504444834667e-04  3.4364074113754937e-04  4.4820723120793588e-04  5.8551814788369199e-04  7.6558170497049473e-04  1.0043166754274272e-03  1.3128979249290088e-03  1.7208915311573291e-03  2.2590136914126709e-03  2.9706410187348088e-03  3.9049647141160596e-03  5.1375016806877467e-03  6.7742450002297831e-03  8.9496714919133531e-03  1.1849617242418693e-02  1.5729147145009562e-02  2.0907097419383052e-02  2.7886942561641842e-02  3.7300666679505087e-02  5.0077910879720952e-02  6.7604897495654001e-02  9.1693436596967021e-02  1.2568289526993956e-01  1.7428011207079694e-01  2.4569897057335993e-01  3.5668570486216183e-01  5.5809776309106940e-01  1.0000000000000000e+00  1.0000000000000000e+00  1.0000000000000000e+00  1.0000000000000000e+00  1.0000000000000000e+00  1.0000000000000000e+00  1.0000000000000000e+00  1.0000000000000000e+00  1.0000000000000000e+00  1.0000000000000000e+00  1.0000000000000000e+00  1.0000000000000000e+00  1.0000000000000000e+00  1.0000000000000000e+00  1.0000000000000000e+00  1.0000000000000000e+00  1.0000000000000000e+00  1.0000000000000000e+00  1.0000000000000000e+00  1.0000000000000000e+00  1.0000000000000000e+00  1.0000000000000000e+00  1.0000000000000000e+00  1.0000000000000000e+00  1.0000000000000000e+00  1.0000000000000000e+00  1.0000000000000000e+00  1.0000000000000000e+00  1.0000000000000000e+00  1.0000000000000000e+00  1.0000000000000000e+00  1.0000000000000000e+00  1.0000000000000000e+00  1.0000000000000000e+00  1.0000000000000000e+00  1.0000000000000000e+00  1.0000000000000000e+00  1.0000000000000000e+00  1.0000000000000000e+00  1.0000000000000000e+00  1.0000000000000000e+00  1.0000000000000000e+00  1.0000000000000000e+00  1.0000000000000000e+00  1.0000000000000000e+00  1.0000000000000000e+00  1.0000000000000000e+00  1.0000000000000000e+00  1.0000000000000000e+00  1.0000000000000000e+00  1.0000000000000000e+00  7.8169618666644036e-01  6.1037771390478013e-01  4.7668551195381126e-01  3.7224943879564176e-01  2.9087655276896618e-01  2.2724323097535623e-01  1.7751710880717853e-01  1.3857573573066764e-01  1.0823762107464174e-01  8.4525403689111475e-02  6.6040011178744043e-02  5.1619947037036817e-02  4.0347293463873640e-02  3.1553378227274949e-02  2.4695006376275263e-02  1.9350080722471744e-02  1.5148240749124412e-02  1.1949270139072599e-02  9.4451985795468603e-03  7.5280353930796155e-03  6.0643225805611101e-03  4.9710076621966668e-03  4.1855341606647153e-03  3.6561073266812272e-03  3.3502744803161140e-03  7.6343345399191347e-07  7.6032562430358724e-07  7.4583240369679867e-07  7.3618612605471092e-07  7.1843978995999082e-07  6.9981208338770069e-07  6.7961577264780821e-07  6.5575623973391604e-07  6.2747728510603625e-07  6.0179871313239262e-07  5.7209523783848477e-07  5.4318709432349949e-07  5.1203943790662399e-07  4.7927048543460582e-07  4.4868383721047007e-07  4.1699933933728844e-07  3.8591356047097053e-07  3.5586466980620226e-07  3.2520652313651384e-07  2.9610572860942579e-07  2.6698477425367851e-07  2.3850849046304148e-07  2.0977002873482636e-07  1.8171284347354872e-07  1.5039106604173063e-07  1.1729383992960982e-07  7.5363558202745698e-08  0.0000000000000000e+00  0.0000000000000000e+00  0.0000000000000000e+00  0.0000000000000000e+00  0.0000000000000000e+00  0.0000000000000000e+00  0.0000000000000000e+00  0.0000000000000000e+00  0.0000000000000000e+00  0.0000000000000000e+00  0.0000000000000000e+00  0.0000000000000000e+00  0.0000000000000000e+00  0.0000000000000000e+00  0.0000000000000000e+00  0.0000000000000000e+00  0.0000000000000000e+00  0.0000000000000000e+00  0.0000000000000000e+00  0.0000000000000000e+00  0.0000000000000000e+00  0.0000000000000000e+00  0.0000000000000000e+00  0.0000000000000000e+00  0.0000000000000000e+00  0.0000000000000000e+00  0.0000000000000000e+00  0.0000000000000000e+00  0.0000000000000000e+00  0.0000000000000000e+00  0.0000000000000000e+00  0.0000000000000000e+00  0.0000000000000000e+00  0.0000000000000000e+00  0.0000000000000000e+00  0.0000000000000000e+00  0.0000000000000000e+00  0.0000000000000000e+00  0.0000000000000000e+00  0.0000000000000000e+00  0.0000000000000000e+00  0.0000000000000000e+00  0.0000000000000000e+00  0.0000000000000000e+00  0.0000000000000000e+00  0.0000000000000000e+00  0.0000000000000000e+00  0.0000000000000000e+00  0.0000000000000000e+00  0.0000000000000000e+00  0.0000000000000000e+00  0.0000000000000000e+00  0.0000000000000000e+00  0.0000000000000000e+00  0.0000000000000000e+00  0.0000000000000000e+00  0.0000000000000000e+00  0.0000000000000000e+00  0.0000000000000000e+00  0.0000000000000000e+00  0.0000000000000000e+00  0.0000000000000000e+00  0.0000000000000000e+00  0.0000000000000000e+00  0.0000000000000000e+00  0.0000000000000000e+00  0.0000000000000000e+00  0.0000000000000000e+00  0.0000000000000000e+00  0.0000000000000000e+00  0.0000000000000000e+00  0.0000000000000000e+00  0.0000000000000000e+00  0.0000000000000000e+00  0.0000000000000000e+00  0.0000000000000000e+00  0.0000000000000000e+00  0.0000000000000000e+00  0.0000000000000000e+00  0.0000000000000000e+00  0.0000000000000000e+00  0.0000000000000000e+00  0.0000000000000000e+00  0.0000000000000000e+00  0.0000000000000000e+00  0.0000000000000000e+00  0.0000000000000000e+00  0.0000000000000000e+00  0.0000000000000000e+00  0.0000000000000000e+00  0.0000000000000000e+00  0.0000000000000000e+00  0.0000000000000000e+00  0.0000000000000000e+00  0.0000000000000000e+00  0.0000000000000000e+00  0.0000000000000000e+00  0.0000000000000000e+00  0.0000000000000000e+00  0.0000000000000000e+00  0.0000000000000000e+00  0.0000000000000000e+00  0.0000000000000000e+00  0.0000000000000000e+00  0.0000000000000000e+00  0.0000000000000000e+00  0.0000000000000000e+00  0.0000000000000000e+00  0.0000000000000000e+00  0.0000000000000000e+00  0.0000000000000000e+00  0.0000000000000000e+00  0.0000000000000000e+00  0.0000000000000000e+00  0.0000000000000000e+00  0.0000000000000000e+00  0.0000000000000000e+00  0.0000000000000000e+00  0.0000000000000000e+00  0.0000000000000000e+00  0.0000000000000000e+00  0.0000000000000000e+00  0.0000000000000000e+00  0.0000000000000000e+00  0.0000000000000000e+00  0.0000000000000000e+00  0.0000000000000000e+00  0.0000000000000000e+00  0.0000000000000000e+00  0.0000000000000000e+00  0.0000000000000000e+00  0.0000000000000000e+00  0.0000000000000000e+00  0.0000000000000000e+00  0.0000000000000000e+00  0.0000000000000000e+00  0.0000000000000000e+00  0.0000000000000000e+00  0.0000000000000000e+00  0.0000000000000000e+00  0.0000000000000000e+00  0.0000000000000000e+00  0.0000000000000000e+00  0.0000000000000000e+00  0.0000000000000000e+00  0.0000000000000000e+00  0.0000000000000000e+00  0.0000000000000000e+00  0.0000000000000000e+00  0.0000000000000000e+00  0.0000000000000000e+00  0.0000000000000000e+00  0.0000000000000000e+00  0.0000000000000000e+00  0.0000000000000000e+00  0.0000000000000000e+00  0.0000000000000000e+00  0.0000000000000000e+00  0.0000000000000000e+00  0.0000000000000000e+00  0.0000000000000000e+00  0.0000000000000000e+00  0.0000000000000000e+00  0.0000000000000000e+00  0.0000000000000000e+00  0.0000000000000000e+00  0.0000000000000000e+00  6.2369786878851674e-08  1.8825425004328356e-07  3.3151643243343276e-07  5.0086822127875131e-07  7.0724065361069081e-07  9.6211577166762290e-07  1.2788981841675320e-06  1.6781801448398046e-06  2.1847949872595279e-06  2.8287455082029652e-06  3.6537688690151959e-06  4.7059843990967576e-06  6.0582527148765473e-06  7.7767116725896234e-06  9.9868148316469976e-06  1.2846898782052562e-05  1.6511332036117041e-05  2.1195783406766402e-05  2.7174312765739612e-05  3.5133556350643137e-05  4.4871013366229569e-05  5.7710611621776034e-05  7.4171737869126915e-05  9.5228292963039628e-05  1.2237030422005424e-04  1.5720813786544615e-04  2.0198405109846608e-04  2.5935253566472494e-04  3.3279217507032379e-04  4.2669754764251610e-04  5.4843695443591042e-04  7.0479370269851786e-04  9.0515952482295506e-04  1.1631315722531847e-03  1.4943895676199487e-03  1.9187607397678885e-03  2.4638062505719614e-03  3.1616301942800043e-03  4.0648708882428082e-03  5.2214873006167133e-03  6.6988156766717953e-03  8.6126613257481062e-03  1.1062993149299594e-02  1.4203207736230045e-02  1.8250114019118271e-02  2.3449539824077350e-02  3.0120800951319391e-02  3.8658210349047310e-02  4.9658883887126866e-02  6.3785881843603273e-02  8.1910387923771991e-02  1.0508909563747987e-01  1.3486118627020641e-01  1.7338075693183699e-01  2.2263440942584095e-01  2.8606310712597777e-01  3.6708846282245267e-01  4.7130572974271151e-01  6.0876814971818449e-01  7.7924027070512258e-01  6.7217656558527693e-06  4.2216023256241388e-02  4.0755389373115437e-02  2.3747499338234364e-04  4.5067397992737289e-03  3.9697414809185712e-02  2.1169388106428693e-02  5.7278662225066500e-05  2.6037855933795115e-05  1.9536697697092320e-03  5.3082613458422276e-04  1.3217376780769902e-01  1.3046392345138932e-01  1.2416141664395744e-02  1.2108965334223136e-02  4.0089581276584366e-02  1.2434953777792340e-01  9.4597330992681333e-03  3.8748307378101525e-03  1.2822236860606716e-06  1.5758198964590497e-01  2.4122445538631182e-06  1.0770387801762789e-02  3.1102006977490299e-04  9.1072006850898902e-05  1.2617924236737644e-05  5.5089211967247198e-06  1.9900597906601705e-01  1.1501107613668451e-02  1.9543543136431507e-01  8.2917730782401597e-03  1.2135570715688547e-03  7.6141916671090808e-03  2.1470562654240929e-01  7.9271687340810113e-03  4.8835327374314791e-03  1.6506887728205397e-01  1.1884524115558969e-06  4.1180537726359122e-02  3.5419815317229195e-02  1.3812492267709696e-02  3.9957850252915823e-02  3.9978803520427014e-02  7.8838773046029553e-04  2.1800121333061675e-05  7.4333284083639867e-05  1.0903220348070875e-03  1.6888766490675511e-04  1.1777049696318347e-04  2.9504585288150787e-05  5.4648430653555218e-03  4.7342387707433858e-03  5.2976640348154309e-07  3.3394645668687140e-01  1.2666713107671817e-06  5.4339844613747277e-03  3.3288821314017114e-01  3.2086445392953378e-01  4.2951675033270076e-02  3.3752701614142555e-01  3.7440999398292822e-05  1.1266945627580868e-05  3.4157499106194394e-01  5.3519120651598509e-03  2.5037183034344848e-03  5.9472857911751045e-04  2.5274548111081484e-04  4.3941850966953950e-04  5.1719448326030485e-03  5.2483162822845842e-06  2.0576711009546442e-06  3.4514698874111854e-01  4.7679928889979947e-02  5.2490236168590615e-03  1.3747081810014279e-03  2.3950241138444798e-03  1.3132818574997915e-01  3.0504615793875722e-01  4.6274538496645480e-03  5.8388213913477857e-02  5.7246846040524310e-02  1.8730471985429088e-02  1.4648684079805704e-03  3.9069263652035929e-03  3.5722296968518841e-01  1.3374712660448011e-02  8.7163699578257980e-02  5.1045705886459333e-03  1.8504442499240156e-02  9.0375363701502495e-02  1.8115479402076817e-02  5.6517446300842072e-02  1.8218554562976250e-02  8.7003904411749142e-02  7.5412757999278861e-03  1.6530491416209232e-02  3.3992349144844280e-03  2.5050168162960716e-06  6.2189428929420955e-02  5.4070439293098689e-06  6.7548049225861165e-07  9.7928211847079200e-02  9.6530628548565008e-07  1.6595067073162627e-02  1.7025699625118247e-02  1.7692025514546416e-02  7.1853385351889482e-05  1.5452265236547898e-05  9.3357547497717272e-06  1.3494623418973940e-04  4.5749187256003097e-03  2.9780272993373937e-06  8.6933220971466985e-03  1.2647662339417673e-01  1.0076198420793178e-01  7.9960109492313572e-05  5.0135123188080539e-04  8.3382474016181748e-02  2.3614132360768658e-06  4.4183032634047431e-01  2.4151072526672569e-02  1.7425528546499635e-05  5.2092586683429982e-06  1.2673934577378702e-02  4.5067798912216928e-01  4.3482304489969714e-03  2.4604128209374408e-03  6.1295397194653417e-04  2.5640405129841209e-06  9.9508984471691028e-07  1.5125974794691693e-01  4.0897974355348964e-03  2.8496822728422783e-05  1.1722471674426415e-05  4.6068573216657838e-01  2.5152808117550529e-03  4.2677423167769984e-03  2.3208105458940101e-04  8.1756641036589868e-03  8.9060854144060092e-02  4.1789646904907607e-01  1.0103145628121879e-03  2.7302407866705542e-04  7.0202655965544833e-03  2.4817357072279812e-02  2.4997386920129056e-02  1.0241994317326910e-02  1.3643650041130231e-01  4.7664655500688907e-01  4.1848322346222881e-03  1.4622694072012116e-04  8.3064556716135649e-02  1.5144739310314365e-03  4.8205840224927365e-01  2.4308355944973668e-04  4.3822111853206149e-05  6.5529081365768490e-07  5.0555206262623352e-02  1.8316987475538081e-02  1.7194079135561169e-01  3.6447674321624680e-05  9.6090593805521086e-03  7.3662990905894188e-04  1.7731430133509207e-01  9.5072345083682865e-03  4.0192572967452222e-03  5.9772769896709543e-02  4.5537613258669514e-07  1.8495381806544456e-01  8.6960513598190558e-07  9.2998467537376214e-03  1.2806586705736066e-06  7.8042680117304586e-02  4.7695726524374248e-05  9.8917138809579367e-03  6.3093540488475507e-03  7.1357423077086021e-05  1.6859083536355173e-05  1.6411842718229647e-01  2.2639385472634801e-02  1.8144435707773787e-01  5.0627508260691811e-01  2.3021647021036429e-02  9.1282053136740246e-03  2.7482332855059289e-02  4.0139630928635039e-03  8.8351019195608265e-03  4.0100011524673062e-03  1.0400370258823698e-03  4.8598756448932167e-04  5.1456504255279324e-04  5.1442579083388085e-01  2.3039261499437523e-03  9.1032076539926728e-03  9.2819922602543445e-02  5.0540103865291486e-01  5.4009628291917075e-06  3.3562181127361015e-03  5.1678792849526967e-01  2.7388101365799339e-03  1.8455373184798729e-02  3.1702042948649152e-02  3.8959320975981123e-05  2.0233572711804867e-02  1.1836234617566031e-04  1.8731939126799270e-05  3.0083066996901164e-01  6.0671542598728734e-05  2.0419270059094169e-05  6.0315082397395569e-04  1.5145933340352763e-04  3.3680740252928283e-02  4.6413351991563380e-06  7.0169607405630621e-02  6.9998624057524286e-02  1.1271680390777471e-03  2.7654228680702063e-04  4.7473513903136484e-02  2.8387693676632106e-07  5.1612024896287811e-01  9.2884201425141150e-07  3.9725022983710225e-03  2.9104748428431725e-05  3.8183173555842180e-06  7.9629105485556483e-04  6.5865471543922168e-03  9.1427177069723441e-06  2.9753699397465514e-06  3.6108335941424860e-03  3.4408146765833376e-02  3.0662126675098475e-02  5.3400741471253577e-01  1.6312573611487733e-04  2.5890354683851180e-01  3.8962927589202604e-03  3.4115449430431745e-02  3.2145448647523840e-02  8.5724521873455639e-02  3.5097970678258132e-04  2.8383773102613249e-02  6.8826024286293390e-07  2.7517169778955627e-02  2.3860624933353712e-03  2.1769136966081171e-02  2.4454471041086721e-03  2.5066827353687976e-01  2.6097809523476434e-03  2.1049699332306791e-02  1.2685182198816533e-05  4.4034869521385614e-03  6.9401338100743247e-03  1.3911285033587404e-02  6.4445505270115971e-02  2.4116855047699604e-01  1.4688307163561465e-04  5.4694598335786205e-03  7.3752703244287419e-07  1.9031566582277976e-01  1.4266989516500535e-06  8.7524633150170179e-03  8.9792030674703347e-03  9.3348590094372366e-04  1.1493687058793590e-04  2.3554811822056650e-03  3.9495172548889996e-04  3.9524673085894330e-02  1.3636946604420660e-02  7.4935995184755152e-03  6.5382125156983554e-03  5.6402461875084087e-01  2.6558539003401371e-01  2.9580975686112657e-06  1.3856281131406379e-06  3.7515079007147570e-03  1.3770714047493806e-06  8.2118566951000221e-06  5.6668903684746974e-01  2.2855968153517744e-02  3.0357508312573454e-05  8.1265952115267282e-06  4.3471395043403784e-03  6.7087773363638517e-03  6.2839279171072113e-02  1.6158186173152679e-06  6.0015656280686852e-07  1.3555848016636712e-04  2.6569652395544962e-05  4.9737321441140573e-05  2.3009656361362876e-01  1.7473222577129353e-03  1.3822674126444450e-02  3.1039936235775203e-06  4.0272658195368588e-04  4.3539672781494338e-06  1.5301644631350890e-06  2.8921194119860960e-01  2.8612275901081219e-01  1.8809766663166749e-03  3.5680214002038902e-03  8.9961327121647049e-06  2.0452387065696293e-01  5.7274958723886038e-01  3.7758361388535522e-03  5.9340204403872576e-01  5.9232245540292924e-03  2.3591863905744689e-02  1.0999984851114847e-01  3.1659908718703750e-02  2.1621332141723511e-02  3.6972460062942034e-03  9.8995071967624013e-02  2.1273224878988170e-05  7.4735931262434277e-06  5.6026605758322112e-01  4.0785224418078650e-02  1.9529745153036149e