<?xml version="1.0"?>
<VTKFile type="UnstructuredGrid"  version="0.1"  >
<UnstructuredGrid>
<Piece  NumberOfPoints="15540" NumberOfCells="30546">
<Points>
<DataArray  type="Float64"  NumberOfComponents="3"  format="ascii">0 0 0  -0.5 -0.5 0  0.5 -0.5 0  0.5 0 0  0.5 0.5 0  -0.5 0.5 0  -0.5 0.0001 0  -0.5 -0.0001 0  0.5 0.1 0  0.5 -0.1 0  -0.5 -0.1 0  -0.5 0.1 0  -0.4900000000000277 -0.5 0  -0.4800000000000555 -0.5 0  -0.4700000000000832 -0.5 0  -0.4600000000001109 -0.5 0  -0.4500000000001387 -0.5 0  -0.4400000000001664 -0.5 0  -0.4300000000001942 -0.5 0  -0.4200000000002219 -0.5 0  -0.4100000000002497 -0.5 0  -0.4000000000002774 -0.5 0  -0.3900000000003052 -0.5 0  -0.3800000000003328 -0.5 0  -0.3700000000003606 -0.5 0  -0.3600000000003883 -0.5 0  -0.3500000000004161 -0.5 0  -0.3400000000004438 -0.5 0  -0.3300000000004716 -0.5 0  -0.3200000000004993 -0.5 0  -0.3100000000005271 -0.5 0  -0.3000000000005548 -0.5 0  -0.2900000000005825 -0.5 0  -0.2800000000006103 -0.5 0  -0.2700000000006381 -0.5 0  -0.2600000000006658 -0.5 0  -0.2500000000006935 -0.5 0  -0.2400000000007212 -0.5 0  -0.230000000000749 -0.5 0  -0.2200000000007767 -0.5 0  -0.2100000000008044 -0.5 0  -0.2000000000008322 -0.5 0  -0.19000000000086 -0.5 0  -0.1800000000008877 -0.5 0  -0.1700000000009154 -0.5 0  -0.1600000000009431 -0.5 0  -0.1500000000009709 -0.5 0  -0.1400000000009986 -0.5 0  -0.1300000000010264 -0.5 0  -0.1200000000010541 -0.5 0  -0.1100000000010818 -0.5 0  -0.1000000000011096 -0.5 0  -0.09000000000113734 -0.5 0  -0.08000000000116503 -0.5 0  -0.07000000000119283 -0.5 0  -0.06000000000122058 -0.5 0  -0.05000000000124827 -0.5 0  -0.04000000000127607 -0.5 0  -0.03000000000130376 -0.5 0  -0.02000000000133151 -0.5 0  -0.01000000000135925 -0.5 0  -1.376121439022882e-12 -0.5 0  0.009999999998640763 -0.5 0  0.01999999999866864 -0.5 0  0.02999999999869629 -0.5 0  0.03999999999872406 -0.5 0  0.04999999999875182 -0.5 0  0.05999999999877947 -0.5 0  0.06999999999880724 -0.5 0  0.079999999998835 -0.5 0  0.08999999999886266 -0.5 0  0.09999999999889042 -0.5 0  0.1099999999989182 -0.5 0  0.1199999999989459 -0.5 0  0.1299999999989737 -0.5 0  0.1399999999990014 -0.5 0  0.1499999999990291 -0.5 0  0.1599999999990568 -0.5 0  0.1699999999990847 -0.5 0  0.1799999999991124 -0.5 0  0.1899999999991401 -0.5 0  0.1999999999991678 -0.5 0  0.2099999999991955 -0.5 0  0.2199999999992234 -0.5 0  0.2299999999992511 -0.5 0  0.2399999999992788 -0.5 0  0.2499999999993066 -0.5 0  0.2599999999993342 -0.5 0  0.269999999999362 -0.5 0  0.2799999999993897 -0.5 0  0.2899999999994175 -0.5 0  0.2999999999994452 -0.5 0  0.3099999999994729 -0.5 0  0.3199999999995007 -0.5 0  0.3299999999995284 -0.5 0  0.3399999999995562 -0.5 0  0.3499999999995839 -0.5 0  0.3599999999996116 -0.5 0  0.3699999999996393 -0.5 0  0.379999999999667 -0.5 0  0.3899999999996949 -0.5 0  0.3999999999997226 -0.5 0  0.4099999999997503 -0.5 0  0.419999999999778 -0.5 0  0.4299999999998058 -0.5 0  0.4399999999998336 -0.5 0  0.4499999999998613 -0.5 0  0.4599999999998891 -0.5 0  0.4699999999999167 -0.5 0  0.4799999999999445 -0.5 0  0.4899999999999722 -0.5 0  0.5 -0.4902110204681464 0  0.5 -0.4804459958734807 0  0.5 -0.4707048677450883 0  0.5 -0.4609875815766065 0  0.5 -0.4512940759251849 0  0.5 -0.4416242912883993 0  0.5 -0.4319781678689807 0  0.5 -0.4223556545383647 0  0.5 -0.4127566896324213 0  0.5 -0.4031812128200121 0  0.5 -0.3936291733057916 0  0.5 -0.3841005081172659 0  0.5 -0.3745951585781932 0  0.5 -0.3651130778999337 0  0.5 -0.3556541993788045 0  0.5 -0.3462184677228392 0  0.5 -0.3368058273705318 0  0.5 -0.3274162224888609 0  0.5 -0.3180495969712945 0  0.5 -0.3087058944357755 0  0.5 -0.299385058222682 0  0.5 -0.2900870313927414 0  0.5 -0.2808117567250807 0  0.5 -0.2715591844628491 0  0.5 -0.2623292564012653 0  0.5 -0.253121909553727 0  0.5 -0.2439371050851549 0  0.5 -0.2347747685524501 0  0.5 -0.2256348634421331 0  0.5 -0.2165173209784076 0  0.5 -0.207422087829958 0  0.5 -0.1983491207029381 0  0.5 -0.1892983550950482 0  0.5 -0.1802697378305253 0  0.5 -0.1712632154965152 0  0.5 -0.1622787344187354 0  0.5 -0.1533162406595534 0  0.5 -0.1443756800160514 0  0.5 -0.1354569980180493 0  0.5 -0.1265601399261414 0  0.5 -0.1176850622761093 0  0.5 -0.1088317009011999 0  0.5 -0.09166666666668973 0  0.5 -0.08333333333337943 0  0.5 -0.07500000000006915 0  0.5 -0.06666666666675886 0  0.5 -0.05833333333344858 0  0.5 -0.05000000000013693 0  0.5 -0.04166666666678191 0  0.5 -0.03333333333342643 0  0.5 -0.02500000000006916 0  0.5 -0.01666666666671188 0  0.5 -0.00833333333335548 0  0.5 0.008333333333318314 0  0.5 0.01666666666663358 0  0.5 0.02499999999994162 0  0.5 0.03333333333325101 0  0.5 0.04166666666655769 0  0.5 0.04999999999986843 0  0.5 0.05833333333322258 0  0.5 0.06666666666657715 0  0.5 0.07499999999993352 0  0.5 0.08333333333328992 0  0.5 0.09166666666664541 0  0.5 0.1088317009011616 0  0.5 0.1176850622760307 0  0.5 0.1265601399260203 0  0.5 0.1354569980178909 0  0.5 0.1443756800158549 0  0.5 0.153316240659315 0  0.5 0.1622787344184454 0  0.5 0.1712632154961752 0  0.5 0.1802697378301332 0  0.5 0.1892983550946039 0  0.5 0.1983491207024433 0  0.5 0.2074220878294123 0  0.5 0.216517320977811 0  0.5 0.2256348634414833 0  0.5 0.2347747685517479 0  0.5 0.2439371050844009 0  0.5 0.2531219095529224 0  0.5 0.2623292564004089 0  0.5 0.2715591844619371 0  0.5 0.2808117567241139 0  0.5 0.290087031391723 0  0.5 0.2993850582216101 0  0.5 0.3087058944347426 0  0.5 0.3180495969703129 0  0.5 0.3274162224879299 0  0.5 0.3368058273696494 0  0.5 0.3462184677220051 0  0.5 0.3556541993780186 0  0.5 0.3651130778991989 0  0.5 0.3745951585775107 0  0.5 0.3841005081166359 0  0.5 0.3936291733052134 0  0.5 0.4031812128194852 0  0.5 0.412756689631945 0  0.5 0.4223556545379392 0  0.5 0.431978167868607 0  0.5 0.4416242912880781 0  0.5 0.4512940759249164 0  0.5 0.4609875815763912 0  0.5 0.4707048677449264 0  0.5 0.4804459958733726 0  0.5 0.4902110204680924 0  0.4900000000000277 0.5 0  0.4800000000000555 0.5 0  0.4700000000000832 0.5 0  0.4600000000001109 0.5 0  0.4500000000001387 0.5 0  0.4400000000001664 0.5 0  0.4300000000001942 0.5 0  0.4200000000002219 0.5 0  0.4100000000002497 0.5 0  0.4000000000002774 0.5 0  0.3900000000003052 0.5 0  0.3800000000003328 0.5 0  0.3700000000003606 0.5 0  0.3600000000003883 0.5 0  0.3500000000004161 0.5 0  0.3400000000004438 0.5 0  0.3300000000004716 0.5 0  0.3200000000004993 0.5 0  0.3100000000005271 0.5 0  0.3000000000005548 0.5 0  0.2900000000005825 0.5 0  0.2800000000006103 0.5 0  0.2700000000006381 0.5 0  0.2600000000006658 0.5 0  0.2500000000006935 0.5 0  0.2400000000007212 0.5 0  0.230000000000749 0.5 0  0.2200000000007767 0.5 0  0.2100000000008044 0.5 0  0.2000000000008322 0.5 0  0.19000000000086 0.5 0  0.1800000000008877 0.5 0  0.1700000000009154 0.5 0  0.1600000000009431 0.5 0  0.1500000000009709 0.5 0  0.1400000000009986 0.5 0  0.1300000000010264 0.5 0  0.1200000000010541 0.5 0  0.1100000000010818 0.5 0  0.1000000000011096 0.5 0  0.09000000000113734 0.5 0  0.08000000000116503 0.5 0  0.07000000000119283 0.5 0  0.06000000000122058 0.5 0  0.05000000000124827 0.5 0  0.04000000000127607 0.5 0  0.03000000000130376 0.5 0  0.02000000000133151 0.5 0  0.01000000000135925 0.5 0  1.376121439022882e-12 0.5 0  -0.009999999998640763 0.5 0  -0.01999999999866864 0.5 0  -0.02999999999869629 0.5 0  -0.03999999999872406 0.5 0  -0.04999999999875182 0.5 0  -0.05999999999877947 0.5 0  -0.06999999999880724 0.5 0  -0.079999999998835 0.5 0  -0.08999999999886266 0.5 0  -0.09999999999889042 0.5 0  -0.1099999999989182 0.5 0  -0.1199999999989459 0.5 0  -0.1299999999989737 0.5 0  -0.1399999999990014 0.5 0  -0.1499999999990291 0.5 0  -0.1599999999990568 0.5 0  -0.1699999999990847 0.5 0  -0.1799999999991124 0.5 0  -0.1899999999991401 0.5 0  -0.1999999999991678 0.5 0  -0.2099999999991955 0.5 0  -0.2199999999992234 0.5 0  -0.2299999999992511 0.5 0  -0.2399999999992788 0.5 0  -0.2499999999993066 0.5 0  -0.2599999999993342 0.5 0  -0.269999999999362 0.5 0  -0.2799999999993897 0.5 0  -0.2899999999994175 0.5 0  -0.2999999999994452 0.5 0  -0.3099999999994729 0.5 0  -0.3199999999995007 0.5 0  -0.3299999999995284 0.5 0  -0.3399999999995562 0.5 0  -0.3499999999995839 0.5 0  -0.3599999999996116 0.5 0  -0.3699999999996393 0.5 0  -0.379999999999667 0.5 0  -0.3899999999996949 0.5 0  -0.3999999999997226 0.5 0  -0.4099999999997503 0.5 0  -0.419999999999778 0.5 0  -0.4299999999998058 0.5 0  -0.4399999999998336 0.5 0  -0.4499999999998613 0.5 0  -0.4599999999998891 0.5 0  -0.4699999999999167 0.5 0  -0.4799999999999445 0.5 0  -0.4899999999999722 0.5 0  -0.5 0.4902110204681464 0  -0.5 0.4804459958734807 0  -0.5 0.4707048677450883 0  -0.5 0.4609875815766065 0  -0.5 0.4512940759251849 0  -0.5 0.4416242912883993 0  -0.5 0.4319781678689807 0  -0.5 0.4223556545383647 0  -0.5 0.4127566896324213 0  -0.5 0.4031812128200121 0  -0.5 0.3936291733057916 0  -0.5 0.3841005081172659 0  -0.5 0.3745951585781932 0  -0.5 0.3651130778999337 0  -0.5 0.3556541993788045 0  -0.5 0.3462184677228392 0  -0.5 0.3368058273705318 0  -0.5 0.3274162224888609 0  -0.5 0.3180495969712945 0  -0.5 0.3087058944357755 0  -0.5 0.299385058222682 0  -0.5 0.2900870313927414 0  -0.5 0.2808117567250807 0  -0.5 0.2715591844628491 0  -0.5 0.2623292564012653 0  -0.5 0.253121909553727 0  -0.5 0.2439371050851549 0  -0.5 0.2347747685524501 0  -0.5 0.2256348634421331 0  -0.5 0.2165173209784076 0  -0.5 0.207422087829958 0  -0.5 0.1983491207029381 0  -0.5 0.1892983550950482 0  -0.5 0.1802697378305253 0  -0.5 0.1712632154965152 0  -0.5 0.1622787344187354 0  -0.5 0.1533162406595534 0  -0.5 0.1443756800160514 0  -0.5 0.1354569980180493 0  -0.5 0.1265601399261414 0  -0.5 0.1176850622761093 0  -0.5 0.1088317009011999 0  -0.5 0.09167500000001694 0  -0.5 0.08335000000003931 0  -0.5 0.07502500000006167 0  -0.5 0.06670000000008947 0  -0.5 0.05837500000011001 0  -0.5 0.0500500000001328 0  -0.5 0.0417250000001127 0  -0.5 0.03340000000008944 0  -0.5 0.02507500000006573 0  -0.5 0.01675000000004653 0  -0.5 0.008425000000027341 
[...]
<PointData  Scalars="f_25"> 
<DataArray  type="Float64"  Name="f_25"  format="ascii">1.0000000000000000e+00  1.3371537276377082e-04  1.1257758840395818e-01  1.9420164460176369e-02  4.0499733657395995e-02  7.6165792501875571e-04  1.0000000000000000e+00  1.0000000000000000e+00  2.2068348823069857e-02  2.0427657072876217e-02  1.2035680073578239e-03  1.2000354061656646e-03  1.3203591570648006e-04  1.4892027902134236e-04  1.8045337875891449e-04  2.1780171078120611e-04  2.5544468783290979e-04  2.9266856739879342e-04  3.2883918423794585e-04  3.6622387020498451e-04  4.0233646745361563e-04  4.3961096484085944e-04  4.7846579785097520e-04  5.2173061732650652e-04  5.6711562869047065e-04  6.1570700778955801e-04  6.6879797682713963e-04  7.2754970951818614e-04  7.9515152469372360e-04  8.6736929892193440e-04  9.4749509039094909e-04  1.0371631296220822e-03  1.1320749871899572e-03  1.2358885194234945e-03  1.3521604776296128e-03  1.4733275667157032e-03  1.6064240899122115e-03  1.7498815878929678e-03  1.9039462341895073e-03  2.0730750500581735e-03  2.2483437730748063e-03  2.4409995169309491e-03  2.6429290093096516e-03  2.8581359102676182e-03  3.0858173094982723e-03  3.3290131792138335e-03  3.5849189776350596e-03  3.8525583627259897e-03  4.1342676600005608e-03  4.4306719208778511e-03  4.7399293315627151e-03  5.0595258612088686e-03  5.3945169431623601e-03  5.7430602565358198e-03  6.0990064035404967e-03  6.4705057139854832e-03  6.8505823209548521e-03  7.2463724999120632e-03  7.6473023215782379e-03  8.0568829972698652e-03  8.4786411250368267e-03  8.9056947157681258e-03  9.3414551142454137e-03  9.7827731437382416e-03  1.0233934144944831e-02  1.0693056856291608e-02  1.1146844214860238e-02  1.1605500497837817e-02  1.2072130015027110e-02  1.2543793154602603e-02  1.3015794469374713e-02  1.3485555481219162e-02  1.3967203230220767e-02  1.4455431435429945e-02  1.4930467184805930e-02  1.5414559623355504e-02  1.5905975075155839e-02  1.6386110384351733e-02  1.6883408430135253e-02  1.7372346984708395e-02  1.7867460014331819e-02  1.8373790177077663e-02  1.8887280529463358e-02  1.9408460204346514e-02  1.9939477968556989e-02  2.0469964356223953e-02  2.1020309540293675e-02  2.1592726438472289e-02  2.2174497895421214e-02  2.2787266017101144e-02  2.3438276562266814e-02  2.4113353183224464e-02  2.4843411874978294e-02  2.5609678857376302e-02  2.6432056131026307e-02  2.7331732442921981e-02  2.8328475286277712e-02  2.9420764452369387e-02  3.0646425219779051e-02  3.2061447743041011e-02  3.3660490615335853e-02  3.5545840921569552e-02  3.7768670646561260e-02  4.0517474791076383e-02  4.3822073117171956e-02  4.8056912604349959e-02  5.3574597056909881e-02  6.0845785850196614e-02  7.0439573303656702e-02  8.2949588607648686e-02  9.8987893115904654e-02  1.0339364138218418e-01  8.7063477199610564e-02  7.3989708827207790e-02  6.3771729972191715e-02  5.6399364417257188e-02  5.0948528272404488e-02  4.6893972953754970e-02  4.3766046183734100e-02  4.1291126507310955e-02  3.9311307159218489e-02  3.7652927840400759e-02  3.6281147158986699e-02  3.5100160740122587e-02  3.4104662617017202e-02  3.3207378897931510e-02  3.2397033900138685e-02  3.1691247216065248e-02  3.1026959688294019e-02  3.0396114392702751e-02  2.9822403671804536e-02  2.9246352379725678e-02  2.8725514074127947e-02  2.8203299146691306e-02  2.7695964558652988e-02  2.7206026887581471e-02  2.6734945671437596e-02  2.6282492325406987e-02  2.5825958460982939e-02  2.5393715588019512e-02  2.4946920531296927e-02  2.4515891992057830e-02  2.4095484789953943e-02  2.3690681964343808e-02  2.3303881922111504e-02  2.2915308847189175e-02  2.2552295793960123e-02  2.2195516792496942e-02  2.1855605690737460e-02  2.1532416578618947e-02  2.1213300739832842e-02  2.0945856236161381e-02  2.0684111629835925e-02  2.0225799245086561e-02  2.0037263479566969e-02  1.9867982501085703e-02  1.9731080462009661e-02  1.9603569741219334e-02  1.9499905474511324e-02  1.9432125169722661e-02  1.9380143272513344e-02  1.9337424435270027e-02  1.9354648604872893e-02  1.9383350132158299e-02  1.9513054205129290e-02  1.9613501587091034e-02  1.9739985983276077e-02  1.9903346840072007e-02  2.0083098964956813e-02  2.0295088705279987e-02  2.0536732703453867e-02  2.0796992078127650e-02  2.1067612192288195e-02  2.1387581555495815e-02  2.1719602570087631e-02  2.2481277106921715e-02  2.2904292370742381e-02  2.3338879185508525e-02  2.3819049915106145e-02  2.4312530246453183e-02  2.4821386306732862e-02  2.5351514692070035e-02  2.5891201515431745e-02  2.6450891840228606e-02  2.7010959143815485e-02  2.7589889557881563e-02  2.8178380169813971e-02  2.8778963047445493e-02  2.9384623825279579e-02  2.9982927821616791e-02  3.0573400463615501e-02  3.1159384725246302e-02  3.1748972868602364e-02  3.2340179674109792e-02  3.2927252270956255e-02  3.3499638173628853e-02  3.4056364519882976e-02  3.4596788183593963e-02  3.5128492104650112e-02  3.5631619267402180e-02  3.6119737989540594e-02  3.6596842315250441e-02  3.7032890084001437e-02  3.7458020794939081e-02  3.7860080567589126e-02  3.8243852656632507e-02  3.8593223412220247e-02  3.8915907480884707e-02  3.9210681617074694e-02  3.9476317377537776e-02  3.9715166493262705e-02  3.9918117837181431e-02  4.0099389483276626e-02  4.0243535904281327e-02  4.0371923511159681e-02  4.0430007447354713e-02  4.0484462466944815e-02  4.0269522360948114e-02  3.9807764702044147e-02  3.9250322135830004e-02  3.8670569046932071e-02  3.8101024887971104e-02  3.7563932116897743e-02  3.7071061973362220e-02  3.6619801636599635e-02  3.6199289670688528e-02  3.5810574207999685e-02  3.5453869069278693e-02  3.5125734114338072e-02  3.4812446039870097e-02  3.4519803720758933e-02  3.4238196212450257e-02  3.3962520454986066e-02  3.3694979393181244e-02  3.3430379679571978e-02  3.3162778519708058e-02  3.2884389385594154e-02  3.2602188047232389e-02  3.2304022558196879e-02  3.1992547541780915e-02  3.1657599963721111e-02  3.1304393177620619e-02  3.0930360850017161e-02  3.0525734516876995e-02  3.0096640849893972e-02  2.9627813575518257e-02  2.9136820623698274e-02  2.8610992929408909e-02  2.8053623990288504e-02  2.7458432547020847e-02  2.6830111063454218e-02  2.6170084407589393e-02  2.5478422103549711e-02  2.4756708913771713e-02  2.4006594921800441e-02  2.3226252882477681e-02  2.2407197007308231e-02  2.1576498388215393e-02  2.0725385976497170e-02  1.9859866004254670e-02  1.8984510696083756e-02  1.8089451096999911e-02  1.7200630876458810e-02  1.6293108077657766e-02  1.5389655743537114e-02  1.4498308943192810e-02  1.3620043919471993e-02  1.2756830347700825e-02  1.1895770910205643e-02  1.1072848444066046e-02  1.0263700772657371e-02  9.4780358114031141e-03  8.7315536055751729e-03  8.0058721881295803e-03  7.3149174130566052e-03  6.6609574628968124e-03  6.0381113523780448e-03  5.4575478131264005e-03  4.9065729676949334e-03  4.3958720297112798e-03  3.9193236766771142e-03  3.4788284960617774e-03  3.0711171448878812e-03  2.6932549154095732e-03  2.3541154736549975e-03  2.0400952781230129e-03  1.7578256555692111e-03  1.5020755237750364e-03  1.2741255556126309e-03  1.0683604323006449e-03  8.8804168935388171e-04  7.2661094578901203e-04  5.8604908840898591e-04  4.6580036193651032e-04  3.6086868477969538e-04  2.7319218512060901e-04  1.9966061748920169e-04  1.4024214479202608e-04  9.4453772872160922e-05  6.0938904824915763e-05  3.9586909036055763e-05  2.9331678831509926e-05  2.9268597054335711e-05  3.8919776777845067e-05  5.7214554510806417e-05  8.3565127573331609e-05  1.1698750083427987e-04  1.5827891732638914e-04  2.0712064845865497e-04  2.6465218155726817e-04  3.2940905469417553e-04  4.0367269528192637e-04  4.8428379858432878e-04  5.7160736268328132e-04  6.5653350439026355e-04  7.2652373668747976e-04  7.6183047365156807e-04  7.5952111656196980e-04  7.5841907847411997e-04  7.5022212556254088e-04  7.4417692971925074e-04  7.3631757854053178e-04  7.2623394813081286e-04  7.1598474864309957e-04  7.0264234045545686e-04  6.8961726931631297e-04  6.7504417888399255e-04  6.5912778367854460e-04  6.4138140663692943e-04  6.2232383944083990e-04  6.0235341228890530e-04  5.8121169938208620e-04  5.5903764940339724e-04  5.3538058951812682e-04  5.1058145418285265e-04  4.8533323387771142e-04  4.5954238200876394e-04  4.3244035907641332e-04  4.0521252019301411e-04  3.7781316343889887e-04  3.4991757137094756e-04  3.2245651670681882e-04  2.9639709068608202e-04  2.6982355690945408e-04  2.4379557921926841e-04  2.1867106385831488e-04  1.9417988357401997e-04  1.7196553957877101e-04  1.5172295018630179e-04  1.3343112259526794e-04  1.1881254437655288e-04  1.1034698096329366e-04  1.0962951754676075e-04  1.2259497386478838e-04  1.5911321801976357e-04  2.3605320984210795e-04  3.9160069455055436e-04  6.7941520716807702e-04  2.1102717258711726e-03  3.6946157622556992e-03  6.4935953526297739e-03  1.1262310765789934e-02  1.9741237898479924e-02  3.4723750238548116e-02  6.0784018013486464e-02  1.0622298128692631e-01  1.8493088969764762e-01  3.2702567871160243e-01  5.7160167000167594e-01  1.0000000000000000e+00  1.0000000000000000e+00  1.0000000000000000e+00  1.0000000000000000e+00  1.0000000000000000e+00  1.0000000000000000e+00  9.9999999999999989e-01  1.0000000000000000e+00  1.0000000000000000e+00  1.0000000000000000e+00  1.0000000000000000e+00  1.0000000000000000e+00  1.0000000000000000e+00  1.0000000000000000e+00  1.0000000000000000e+00  1.0000000000000000e+00  1.0000000000000000e+00  1.0000000000000000e+00  1.0000000000000000e+00  1.0000000000000000e+00  1.0000000000000000e+00  1.0000000000000000e+00  1.0000000000000000e+00  1.0000000000000000e+00  1.0000000000000000e+00  1.0000000000000000e+00  1.0000000000000000e+00  1.0000000000000000e+00  1.0000000000000000e+00  1.0000000000000000e+00  1.0000000000000000e+00  1.0000000000000000e+00  1.0000000000000000e+00  1.0000000000000000e+00  1.0000000000000000e+00  1.0000000000000000e+00  1.0000000000000000e+00  1.0000000000000000e+00  1.0000000000000000e+00  1.0000000000000000e+00  1.0000000000000000e+00  1.0000000000000000e+00  1.0000000000000000e+00  1.0000000000000000e+00  1.0000000000000000e+00  1.0000000000000000e+00  1.0000000000000000e+00  1.0000000000000000e+00  1.0000000000000000e+00  1.0000000000000000e+00  1.0000000000000000e+00  1.0000000000000000e+00  1.0000000000000000e+00  1.0000000000000000e+00  9.9999999999999989e-01  1.0000000000000000e+00  1.0000000000000000e+00  1.0000000000000000e+00  1.0000000000000000e+00  1.0000000000000000e+00  1.0000000000000000e+00  1.0000000000000000e+00  1.0000000000000000e+00  1.0000000000000000e+00  1.0000000000000000e+00  1.0000000000000000e+00  1.0000000000000000e+00  1.0000000000000000e+00  1.0000000000000000e+00  1.0000000000000000e+00  1.0000000000000000e+00  1.0000000000000000e+00  1.0000000000000000e+00  1.0000000000000000e+00  1.0000000000000000e+00  1.0000000000000000e+00  1.0000000000000000e+00  1.0000000000000000e+00  1.0000000000000000e+00  1.0000000000000000e+00  1.0000000000000000e+00  1.0000000000000000e+00  1.0000000000000000e+00  1.0000000000000000e+00  1.0000000000000000e+00  1.0000000000000000e+00  1.0000000000000000e+00  1.0000000000000000e+00  1.0000000000000000e+00  1.0000000000000000e+00  1.0000000000000000e+00  1.0000000000000000e+00  1.0000000000000000e+00  1.0000000000000000e+00  1.0000000000000000e+00  1.0000000000000000e+00  1.0000000000000000e+00  1.0000000000000000e+00  1.0000000000000000e+00  1.0000000000000000e+00  1.0000000000000000e+00  1.0000000000000000e+00  1.0000000000000000e+00  1.0000000000000000e+00  1.0000000000000000e+00  1.0000000000000000e+00  1.0000000000000000e+00  1.0000000000000000e+00  1.0000000000000000e+00  1.0000000000000000e+00  5.7157111043471065e-01  3.2704087250251945e-01  1.8489417895911270e-01  1.0624086529204101e-01  6.0791620764842513e-02  3.4729642631890045e-02  1.9749434456144837e-02  1.1265137282980108e-02  6.4987369401385822e-03  3.6984134764919082e-03  2.1138888387075660e-03  6.8346582824723313e-04  3.9621840143128523e-04  2.4097565796309806e-04  1.6521743814775178e-04  1.2937739613132513e-04  1.1684372624074076e-04  1.1770359645722176e-04  1.2602744239291965e-04  1.3982527628529003e-04  1.5677741146107174e-04  1.7514070520873717e-04  1.9414949892572860e-04  2.1453180246380088e-04  2.3439832801402089e-04  2.5365458800608774e-04  2.7233798704885556e-04  2.8861711246576399e-04  3.0447410767793720e-04  3.1851051605582940e-04  3.3023648272565196e-04  3.3989832065499734e-04  3.4694172315963306e-04  3.5085846369374644e-04  3.5146581051817105e-04  3.4916827937401482e-04  3.4393437103841267e-04  3.3556714801085351e-04  3.2350253435078094e-04  3.0838443407888686e-04  2.9120461007607146e-04  2.7109865234960061e-04  2.4898973140489821e-04  2.2531381050721529e-04  2.0035695281165491e-04  1.7573742722743431e-04  1.5360665610758716e-04  1.3256913975490898e-04  1.1451006572706633e-04  1.0254797669434825e-04  9.7162077675243464e-05  1.0731907917603883e-04  1.2279192769548971e-04  1.1990769261254286e-03  1.2069649291571456e-03  1.2136521385711580e-03  1.2178580795906809e-03  1.2218793662016410e-03  1.2471128961293861e-03  1.2553965801426707e-03  1.2512676352099928e-03  1.2768488290984092e-03  1.3032408009661851e-03  1.2948463312075856e-03  1.3229827453189419e-03  1.3474504689797865e-03  1.3601492801178366e-03  1.3720535108300352e-03  1.3752718899072279e-03  1.3854147044323807e-03  1.3854434142475561e-03  1.4135478243390406e-03  1.4251710124998319e-03  1.4208638481152166e-03  1.4252691151931643e-03  1.4422683652881357e-03  1.4429609953912547e-03  1.4294964390138283e-03  1.4285683144602485e-03  1.4240621826460567e-03  1.4103286849330176e-03  1.4130257405333632e-03  1.3956137161748343e-03  1.3763610493947710e-03  1.3702379821792818e-03  1.3615016343572453e-03  1.3439120315293599e-03  1.3544370438579546e-03  1.3817447265216860e-03  1.3765053215769431e-03  1.4369628845038302e-03  1.5108281457102126e-03  1.6072041873276958e-03  1.8001994304817060e-03  2.0375399295304562e-03  2.3611920774179503e-03  2.8380856934087646e-03  3.4612657465877394e-03  4.3084012480997741e-03  5.4404965242142896e-03  6.8890146548143726e-03  8.7145729140052641e-03  1.1006521413461959e-02  1.3810669244812572e-02  1.7159159179792466e-02  2.1071240055300963e-02  2.5309707101587937e-02  2.9842706274295559e-02  3.4525511137547808e-02  3.9017624411416173e-02  4.3061025411662741e-02  4.6544873004086024e-02  4.9214348610019262e-02  5.1026121837117674e-02  5.2044547052835177e-02  5.2329855282705333e-02  5.2014460281540616e-02  5.1225964404020108e-02  5.0094611130330112e-02  4.8773238229414678e-02  4.7313258896985476e-02  4.5813971539350039e-02  4.4302142596312190e-02  4.2875647115898294e-02  4.1508855388774087e-02  4.0229427320375079e-02  3.9046655497204458e-02  3.7966600892435406e-02  3.6975618848127320e-02  3.6070944629982560e-02  3.5263423044292697e-02  3.4532739431774317e-02  3.3873562463279439e-02  3.3271418171652918e-02  3.2722422482863223e-02  3.2225618844398334e-02  3.1771684228019757e-02  3.1346626945876990e-02  3.0962109651252644e-02  3.0603012569628135e-02  3.0271320429134350e-02  2.9955880993813119e-02  2.9649448569308002e-02  2.9361358121166393e-02  2.9082144121105359e-02  2.8801198841434721e-02  2.8520999903535765e-02  2.8236755936226220e-02  2.7953202402445324e-02  2.7663129280473580e-02  2.7360738584764274e-02  2.7046610355092621e-02  2.6717032663722919e-02  2.6372601141842294e-02  2.6010677809876377e-02  2.5632285081904304e-02  2.5231803433880106e-02  2.4808969067450365e-02  2.4370034088521158e-02  2.3910735571565284e-02  2.3445216381491878e-02  2.2983734264049299e-02  2.2557689992997083e-02  2.2223186753562180e-02  1.2026825354675729e-03  1.2103051188396060e-03  1.2171253495941018e-03  1.2213895325484212e-03  1.2254798007020047e-03  1.2510401594122856e-03  1.2586209740975717e-03  1.2541899537543777e-03  1.2784329053049238e-03  1.3033221043914766e-03  1.2958388961400470e-03  1.3199905379932973e-03  1.3427503976324716e-03  1.3534773469820413e-03  1.3634047607253394e-03  1.3653378009635907e-03  1.3724781907659828e-03  1.3685804085129180e-03  1.3964771014882216e-03  1.4107460925404888e-03  1.4057525663229179e-03  1.4104490908880955e-03  1.4243230815953526e-03  1.4246679250124116e-03  1.4099577961096614e-03  1.4087081671647274e-03  1.4048846042844709e-03  1.3915114010940148e-03  1.3938635047584201e-03  1.3773137822655776e-03  1.3578739041355010e-03  1.3505568524069824e-03  1.3400647058720541e-03  1.3213565035372458e-03  1.3298167823775160e-03  1.3543480485808568e-03  1.3431448070378501e-03  1.3957558563241377e-03  1.4574146975631793e-03  1.5385442268911456e-03  1.7123655587388293e-03  1.9218886782446166e-03  2.2118787344517243e-03  2.6464697324548028e-03  3.2135917387023775e-03  3.9917475657468742e-03  5.0394958169819254e-03  6.3875469738704175e-03  8.0965276890718595e-03  1.0258399971757070e-02  1.2920757597213424e-02  1.6122553111742717e-02  1.9884913834912029e-02  2.3994475460683107e-02  2.8424716333360578e-02  3.3038942275678287e-02  3.7513138838324189e-02  4.1604787556741879e-02  4.5183900086447390e-02  4.8005082948210612e-02  5.0011093974662989e-02  5.1242819590450829e-02  5.1755065521058720e-02  5.1666217517311618e-02  5.1080610965121676e-02  5.0137938891458116e-02  4.8982436364811380e-02  4.7661167093177248e-02  4.6275147500720135e-02  4.4849631606062666e-02  4.3495845560679001e-02  4.2185180928966060e-02  4.0939295315626553e-02  3.9783025025943955e-02  3.8719496584697553e-02  3.7736296451587985e-02  3.6831697867540043e-02  3.6017721856292394e-02  3.5275573354110995e-02  3.4602322512787900e-02  3.3982023685083636e-02  3.3410046647872567e-02  3.2888294466199008e-02  3.2404978018654891e-02  3.1948902223367312e-02  3.1528331571607573e-02  3.1129922052485125e-02  3.0756615674026128e-02  3.0395559822032819e-02  3.0038219505306472e-02  2.9695448091206094e-02  2.9356748890095062e-02  2.9011040188195340e-02  2.8662142090763017e-02  2.8302731283547041e-02  2.7939458486829282e-02  2.7565156849242236e-02  2.7172039401149307e-02  2.6762410220885269e-02  2.6331265536503001e-02  2.5880071018630543e-02  2.5408076833338445e-02  2.4914721365542992e-02  2.4397038723933069e-02  2.3854730955219693e-02  2.3293779467639473e-02  2.2713865196434428e-02  2.2128200333864003e-02  2.1551758667895948e-02  2.1026507116322767e-02  2.0614385097265178e-02  6.3678470790324804e-01  4.3112369917408838e-01  2.9356982529950348e-01  2.0928451346426163e-01  1.5457942236082287e-01  1.1790245902837992e-01  9.3207240545111883e-02  7.6650701282200653e-02  6.4840185877552761e-02  5.6500457291603468e-02  5.0354079723687030e-02  4.5678575400049236e-02  4.2146218372220545e-02  3.9397043353548933e-02  3.7229743201994854e-02  3.5484693523777422e-02  3.4088668560502237e-02  3.2943232895680317e-02  3.1993017736325423e-02  3.1215770115513613e-02  3.0564010735555178e-02  3.0007354670630173e-02  2.9545518219871902e-02  2.9148542851565189e-02  2.8809506710378231e-02  2.8521935373372810e-02  2.8257784025261891e-02  2.8035871532411109e-02  2.7829905298793464e-02  2.7639598908685947e-02  2.7469391853799752e-02  2.7311129556571834e-02  2.7151761373261311e-02  2.6988365814095677e-02  2.6822583695574092e-02  2.6646702419058498e-02  2.6469112784429542e-02  2.6275624741410267e-02  2.6067765695343824e-02  2.5844550568611322e-02  2.5602177565346083e-02  2.5339092889072334e-02  2.5049405252225106e-02  2.4735706064557966e-02  2.4388346436313022e-02  2.4013167049191136e-02  2.3608903801284557e-02  2.3167177907184085e-02  2.2696100902810878e-02  2.2187729000541875e-02  2.1651597524494318e-02  2.1098516196965320e-02  2.0542164817429202e-02  2.0028367259934333e-02  1.9607837647432028e-02  6.8167659334177873e-03  1.6437456622031140e-04  2.8440098899077983e-02  3.3934856564704137e-02  2.1164560718809650e-02  8.2143484690308944e-04  2.1449707861282189e-04  3.5845033351297573e-02  3.1234635832670225e-02  1.5839701656686401e-02  1.8269997542678103e-03  8.5619116713389951e-05  3.0939258835518856e-02  3.4640291642050153e-02  6.3251021586973781e-03  1.4832984545355398e-04  3.6328062959633402e-02  2.4651153976954134e-02  2.6602103213843451e-04  6.7717161350771982e-03  3.3178500898451292e