<?xml version="1.0"?>
<VTKFile type="UnstructuredGrid"  version="0.1"  >
<UnstructuredGrid>
<Piece  NumberOfPoints="15540" NumberOfCells="30546">
<Points>
<DataArray  type="Float64"  NumberOfComponents="3"  format="ascii">0 0 0  -0.5 -0.5 0  0.5 -0.5 0  0.5 0 0  0.5 0.5 0  -0.5 0.5 0  -0.5 0.0001 0  -0.5 -0.0001 0  0.5 0.1 0  0.5 -0.1 0  -0.5 -0.1 0  -0.5 0.1 0  -0.4900000000000277 -0.5 0  -0.4800000000000555 -0.5 0  -0.4700000000000832 -0.5 0  -0.4600000000001109 -0.5 0  -0.4500000000001387 -0.5 0  -0.4400000000001664 -0.5 0  -0.4300000000001942 -0.5 0  -0.4200000000002219 -0.5 0  -0.4100000000002497 -0.5 0  -0.4000000000002774 -0.5 0  -0.3900000000003052 -0.5 0  -0.3800000000003328 -0.5 0  -0.3700000000003606 -0.5 0  -0.3600000000003883 -0.5 0  -0.3500000000004161 -0.5 0  -0.3400000000004438 -0.5 0  -0.3300000000004716 -0.5 0  -0.3200000000004993 -0.5 0  -0.3100000000005271 -0.5 0  -0.3000000000005548 -0.5 0  -0.2900000000005825 -0.5 0  -0.2800000000006103 -0.5 0  -0.2700000000006381 -0.5 0  -0.2600000000006658 -0.5 0  -0.2500000000006935 -0.5 0  -0.2400000000007212 -0.5 0  -0.230000000000749 -0.5 0  -0.2200000000007767 -0.5 0  -0.2100000000008044 -0.5 0  -0.2000000000008322 -0.5 0  -0.19000000000086 -0.5 0  -0.1800000000008877 -0.5 0  -0.1700000000009154 -0.5 0  -0.1600000000009431 -0.5 0  -0.1500000000009709 -0.5 0  -0.1400000000009986 -0.5 0  -0.1300000000010264 -0.5 0  -0.1200000000010541 -0.5 0  -0.1100000000010818 -0.5 0  -0.1000000000011096 -0.5 0  -0.09000000000113734 -0.5 0  -0.08000000000116503 -0.5 0  -0.07000000000119283 -0.5 0  -0.06000000000122058 -0.5 0  -0.05000000000124827 -0.5 0  -0.04000000000127607 -0.5 0  -0.03000000000130376 -0.5 0  -0.02000000000133151 -0.5 0  -0.01000000000135925 -0.5 0  -1.376121439022882e-12 -0.5 0  0.009999999998640763 -0.5 0  0.01999999999866864 -0.5 0  0.02999999999869629 -0.5 0  0.03999999999872406 -0.5 0  0.04999999999875182 -0.5 0  0.05999999999877947 -0.5 0  0.06999999999880724 -0.5 0  0.079999999998835 -0.5 0  0.08999999999886266 -0.5 0  0.09999999999889042 -0.5 0  0.1099999999989182 -0.5 0  0.1199999999989459 -0.5 0  0.1299999999989737 -0.5 0  0.1399999999990014 -0.5 0  0.1499999999990291 -0.5 0  0.1599999999990568 -0.5 0  0.1699999999990847 -0.5 0  0.1799999999991124 -0.5 0  0.1899999999991401 -0.5 0  0.1999999999991678 -0.5 0  0.2099999999991955 -0.5 0  0.2199999999992234 -0.5 0  0.2299999999992511 -0.5 0  0.2399999999992788 -0.5 0  0.2499999999993066 -0.5 0  0.2599999999993342 -0.5 0  0.269999999999362 -0.5 0  0.2799999999993897 -0.5 0  0.2899999999994175 -0.5 0  0.2999999999994452 -0.5 0  0.3099999999994729 -0.5 0  0.3199999999995007 -0.5 0  0.3299999999995284 -0.5 0  0.3399999999995562 -0.5 0  0.3499999999995839 -0.5 0  0.3599999999996116 -0.5 0  0.3699999999996393 -0.5 0  0.379999999999667 -0.5 0  0.3899999999996949 -0.5 0  0.3999999999997226 -0.5 0  0.4099999999997503 -0.5 0  0.419999999999778 -0.5 0  0.4299999999998058 -0.5 0  0.4399999999998336 -0.5 0  0.4499999999998613 -0.5 0  0.4599999999998891 -0.5 0  0.4699999999999167 -0.5 0  0.4799999999999445 -0.5 0  0.4899999999999722 -0.5 0  0.5 -0.4902110204681464 0  0.5 -0.4804459958734807 0  0.5 -0.4707048677450883 0  0.5 -0.4609875815766065 0  0.5 -0.4512940759251849 0  0.5 -0.4416242912883993 0  0.5 -0.4319781678689807 0  0.5 -0.4223556545383647 0  0.5 -0.4127566896324213 0  0.5 -0.4031812128200121 0  0.5 -0.3936291733057916 0  0.5 -0.3841005081172659 0  0.5 -0.3745951585781932 0  0.5 -0.3651130778999337 0  0.5 -0.3556541993788045 0  0.5 -0.3462184677228392 0  0.5 -0.3368058273705318 0  0.5 -0.3274162224888609 0  0.5 -0.3180495969712945 0  0.5 -0.3087058944357755 0  0.5 -0.299385058222682 0  0.5 -0.2900870313927414 0  0.5 -0.2808117567250807 0  0.5 -0.2715591844628491 0  0.5 -0.2623292564012653 0  0.5 -0.253121909553727 0  0.5 -0.2439371050851549 0  0.5 -0.2347747685524501 0  0.5 -0.2256348634421331 0  0.5 -0.2165173209784076 0  0.5 -0.207422087829958 0  0.5 -0.1983491207029381 0  0.5 -0.1892983550950482 0  0.5 -0.1802697378305253 0  0.5 -0.1712632154965152 0  0.5 -0.1622787344187354 0  0.5 -0.1533162406595534 0  0.5 -0.1443756800160514 0  0.5 -0.1354569980180493 0  0.5 -0.1265601399261414 0  0.5 -0.1176850622761093 0  0.5 -0.1088317009011999 0  0.5 -0.09166666666668973 0  0.5 -0.08333333333337943 0  0.5 -0.07500000000006915 0  0.5 -0.06666666666675886 0  0.5 -0.05833333333344858 0  0.5 -0.05000000000013693 0  0.5 -0.04166666666678191 0  0.5 -0.03333333333342643 0  0.5 -0.02500000000006916 0  0.5 -0.01666666666671188 0  0.5 -0.00833333333335548 0  0.5 0.008333333333318314 0  0.5 0.01666666666663358 0  0.5 0.02499999999994162 0  0.5 0.03333333333325101 0  0.5 0.04166666666655769 0  0.5 0.04999999999986843 0  0.5 0.05833333333322258 0  0.5 0.06666666666657715 0  0.5 0.07499999999993352 0  0.5 0.08333333333328992 0  0.5 0.09166666666664541 0  0.5 0.1088317009011616 0  0.5 0.1176850622760307 0  0.5 0.1265601399260203 0  0.5 0.1354569980178909 0  0.5 0.1443756800158549 0  0.5 0.153316240659315 0  0.5 0.1622787344184454 0  0.5 0.1712632154961752 0  0.5 0.1802697378301332 0  0.5 0.1892983550946039 0  0.5 0.1983491207024433 0  0.5 0.2074220878294123 0  0.5 0.216517320977811 0  0.5 0.2256348634414833 0  0.5 0.2347747685517479 0  0.5 0.2439371050844009 0  0.5 0.2531219095529224 0  0.5 0.2623292564004089 0  0.5 0.2715591844619371 0  0.5 0.2808117567241139 0  0.5 0.290087031391723 0  0.5 0.2993850582216101 0  0.5 0.3087058944347426 0  0.5 0.3180495969703129 0  0.5 0.3274162224879299 0  0.5 0.3368058273696494 0  0.5 0.3462184677220051 0  0.5 0.3556541993780186 0  0.5 0.3651130778991989 0  0.5 0.3745951585775107 0  0.5 0.3841005081166359 0  0.5 0.3936291733052134 0  0.5 0.4031812128194852 0  0.5 0.412756689631945 0  0.5 0.4223556545379392 0  0.5 0.431978167868607 0  0.5 0.4416242912880781 0  0.5 0.4512940759249164 0  0.5 0.4609875815763912 0  0.5 0.4707048677449264 0  0.5 0.4804459958733726 0  0.5 0.4902110204680924 0  0.4900000000000277 0.5 0  0.4800000000000555 0.5 0  0.4700000000000832 0.5 0  0.4600000000001109 0.5 0  0.4500000000001387 0.5 0  0.4400000000001664 0.5 0  0.4300000000001942 0.5 0  0.4200000000002219 0.5 0  0.4100000000002497 0.5 0  0.4000000000002774 0.5 0  0.3900000000003052 0.5 0  0.3800000000003328 0.5 0  0.3700000000003606 0.5 0  0.3600000000003883 0.5 0  0.3500000000004161 0.5 0  0.3400000000004438 0.5 0  0.3300000000004716 0.5 0  0.3200000000004993 0.5 0  0.3100000000005271 0.5 0  0.3000000000005548 0.5 0  0.2900000000005825 0.5 0  0.2800000000006103 0.5 0  0.2700000000006381 0.5 0  0.2600000000006658 0.5 0  0.2500000000006935 0.5 0  0.2400000000007212 0.5 0  0.230000000000749 0.5 0  0.2200000000007767 0.5 0  0.2100000000008044 0.5 0  0.2000000000008322 0.5 0  0.19000000000086 0.5 0  0.1800000000008877 0.5 0  0.1700000000009154 0.5 0  0.1600000000009431 0.5 0  0.1500000000009709 0.5 0  0.1400000000009986 0.5 0  0.1300000000010264 0.5 0  0.1200000000010541 0.5 0  0.1100000000010818 0.5 0  0.1000000000011096 0.5 0  0.09000000000113734 0.5 0  0.08000000000116503 0.5 0  0.07000000000119283 0.5 0  0.06000000000122058 0.5 0  0.05000000000124827 0.5 0  0.04000000000127607 0.5 0  0.03000000000130376 0.5 0  0.02000000000133151 0.5 0  0.01000000000135925 0.5 0  1.376121439022882e-12 0.5 0  -0.009999999998640763 0.5 0  -0.01999999999866864 0.5 0  -0.02999999999869629 0.5 0  -0.03999999999872406 0.5 0  -0.04999999999875182 0.5 0  -0.05999999999877947 0.5 0  -0.06999999999880724 0.5 0  -0.079999999998835 0.5 0  -0.08999999999886266 0.5 0  -0.09999999999889042 0.5 0  -0.1099999999989182 0.5 0  -0.1199999999989459 0.5 0  -0.1299999999989737 0.5 0  -0.1399999999990014 0.5 0  -0.1499999999990291 0.5 0  -0.1599999999990568 0.5 0  -0.1699999999990847 0.5 0  -0.1799999999991124 0.5 0  -0.1899999999991401 0.5 0  -0.1999999999991678 0.5 0  -0.2099999999991955 0.5 0  -0.2199999999992234 0.5 0  -0.2299999999992511 0.5 0  -0.2399999999992788 0.5 0  -0.2499999999993066 0.5 0  -0.2599999999993342 0.5 0  -0.269999999999362 0.5 0  -0.2799999999993897 0.5 0  -0.2899999999994175 0.5 0  -0.2999999999994452 0.5 0  -0.3099999999994729 0.5 0  -0.3199999999995007 0.5 0  -0.3299999999995284 0.5 0  -0.3399999999995562 0.5 0  -0.3499999999995839 0.5 0  -0.3599999999996116 0.5 0  -0.3699999999996393 0.5 0  -0.379999999999667 0.5 0  -0.3899999999996949 0.5 0  -0.3999999999997226 0.5 0  -0.4099999999997503 0.5 0  -0.419999999999778 0.5 0  -0.4299999999998058 0.5 0  -0.4399999999998336 0.5 0  -0.4499999999998613 0.5 0  -0.4599999999998891 0.5 0  -0.4699999999999167 0.5 0  -0.4799999999999445 0.5 0  -0.4899999999999722 0.5 0  -0.5 0.4902110204681464 0  -0.5 0.4804459958734807 0  -0.5 0.4707048677450883 0  -0.5 0.4609875815766065 0  -0.5 0.4512940759251849 0  -0.5 0.4416242912883993 0  -0.5 0.4319781678689807 0  -0.5 0.4223556545383647 0  -0.5 0.4127566896324213 0  -0.5 0.4031812128200121 0  -0.5 0.3936291733057916 0  -0.5 0.3841005081172659 0  -0.5 0.3745951585781932 0  -0.5 0.3651130778999337 0  -0.5 0.3556541993788045 0  -0.5 0.3462184677228392 0  -0.5 0.3368058273705318 0  -0.5 0.3274162224888609 0  -0.5 0.3180495969712945 0  -0.5 0.3087058944357755 0  -0.5 0.299385058222682 0  -0.5 0.2900870313927414 0  -0.5 0.2808117567250807 0  -0.5 0.2715591844628491 0  -0.5 0.2623292564012653 0  -0.5 0.253121909553727 0  -0.5 0.2439371050851549 0  -0.5 0.2347747685524501 0  -0.5 0.2256348634421331 0  -0.5 0.2165173209784076 0  -0.5 0.207422087829958 0  -0.5 0.1983491207029381 0  -0.5 0.1892983550950482 0  -0.5 0.1802697378305253 0  -0.5 0.1712632154965152 0  -0.5 0.1622787344187354 0  -0.5 0.1533162406595534 0  -0.5 0.1443756800160514 0  -0.5 0.1354569980180493 0  -0.5 0.1265601399261414 0  -0.5 0.1176850622761093 0  -0.5 0.1088317009011999 0  -0.5 0.09167500000001694 0  -0.5 0.08335000000003931 0  -0.5 0.07502500000006167 0  -0.5 0.06670000000008947 0  -0.5 0.05837500000011001 0  -0.5 0.0500500000001328 0  -0.5 0.0417250000001127 0  -0.5 0.03340000000008944 0  -0.5 0.02507500000006573 0  -0.5 0.01675000000004653 0  -0.5 0.008425000000027341 
[...]
<PointData  Scalars="f_25"> 
<DataArray  type="Float64"  Name="f_25"  format="ascii">1.0000000000000000e+00  1.4108784660919066e-04  1.4229661258687529e-01  2.3861014680387743e-02  5.0841925842001014e-02  9.5196585280491971e-04  1.0000000000000000e+00  1.0000000000000000e+00  2.7204552731566876e-02  2.5187104395745914e-02  1.2077608631934382e-03  1.2038852295230093e-03  1.4285987898487310e-04  1.6564509225453194e-04  2.0366409681751735e-04  2.4761555420245316e-04  2.9129180834210332e-04  3.3422391028584115e-04  3.7581912379382030e-04  4.1879791904987342e-04  4.6025923279749713e-04  5.0298057707462635e-04  5.4745049163123713e-04  5.9706474563277602e-04  6.4923811681885722e-04  7.0529704808949757e-04  7.6677570110920881e-04  8.3506064874339222e-04  9.1391713508493172e-04  9.9838501027865864e-04  1.0923522273229343e-03  1.1977674028627349e-03  1.3095883320649523e-03  1.4321260001060384e-03  1.5696385559502504e-03  1.7131684539829441e-03  1.8710855327677067e-03  2.0415479548175348e-03  2.2248826725187946e-03  2.4264652444496663e-03  2.6356413439544125e-03  2.8658467950682907e-03  3.1074415554524387e-03  3.3652438345114157e-03  3.6383216389870052e-03  3.9303859610496953e-03  4.2381232426536124e-03  4.5603309315877544e-03  4.8998563867336236e-03  5.2575606760944162e-03  5.6311864868799988e-03  6.0177630077262291e-03  6.4234072200877058e-03  6.8460575073984843e-03  7.2781882739845465e-03  7.7297943897240090e-03  8.1921888371006106e-03  8.6744131228513235e-03  9.1633264349208314e-03  9.6636295647389066e-03  1.0179522277298837e-02  1.0702440583736372e-02  1.1236643186864181e-02  1.1778593181780525e-02  1.2333405676400410e-02  1.2898510555914120e-02  1.3458038318750471e-02  1.4024583431699572e-02  1.4601484308111120e-02  1.5185506742861619e-02  1.5770941674142783e-02  1.6354703117931271e-02  1.6954046928271460e-02  1.7562308411984799e-02  1.8155584660899463e-02  1.8760909547665829e-02  1.9376245918351062e-02  1.9978990215622248e-02  2.0603986972291044e-02  2.1219906859591645e-02  2.1844394002927228e-02  2.2483932062962519e-02  2.3133535170931273e-02  2.3794012918684947e-02  2.4467875622712413e-02  2.5142546192905058e-02  2.5842934746392886e-02  2.6572336197696275e-02  2.7315097410381840e-02  2.8097755830464866e-02  2.8930048210588515e-02  2.9794073539330997e-02  3.0729024433736655e-02  3.1711101445696784e-02  3.2765985136682205e-02  3.3920619379095206e-02  3.5200370769359647e-02  3.6603401706204915e-02  3.8178189816740066e-02  3.9996885803163150e-02  4.2052423009884529e-02  4.4476126005939032e-02  4.7334355974992456e-02  5.0865802118100829e-02  5.5108231246905934e-02  6.0539703026626174e-02  6.7608331360274943e-02  7.6892824139406277e-02  8.9109017910215096e-02  1.0496509462021744e-01  1.2520415960252063e-01  1.3053749131125816e-01  1.0964484557440309e-01  9.2896733801418149e-02  7.9847947106197747e-02  7.0465467991390834e-02  6.3559040341714820e-02  5.8441451677166141e-02  5.4515361812132894e-02  5.1421687177796639e-02  4.8954533415382792e-02  4.6894893270049733e-02  4.5193755090181385e-02  4.3731783568924452e-02  4.2498906097488014e-02  4.1387640514905621e-02  4.0382968756720379e-02  3.9506115410620331e-02  3.8679453085620617e-02  3.7892876440016786e-02  3.7174778939067898e-02  3.6452787677138276e-02  3.5797377330921080e-02  3.5139051745078247e-02  3.4497818750821460e-02  3.3876963490898152e-02  3.3278567159629693e-02  3.2702574812930998e-02  3.2120958017888522e-02  3.1568380719802704e-02  3.0997244797735368e-02  3.0445366354470729e-02  2.9906572470721531e-02  2.9387106299987597e-02  2.8890266772222221e-02  2.8391199843193913e-02  2.7924225318635081e-02  2.7465295110692789e-02  2.7027851609049587e-02  2.6611661906046004e-02  2.6200967128485863e-02  2.5855603825300572e-02  2.5517837874654205e-02  2.4925920623334215e-02  2.4681986959600874e-02  2.4462683876858071e-02  2.4284540978728061e-02  2.4118605688657452e-02  2.3982991919431547e-02  2.3893053049811069e-02  2.3823390199622454e-02  2.3765747915932136e-02  2.3784100727068307e-02  2.3817265732614348e-02  2.3975894911089039e-02  2.4100715047893528e-02  2.4258793352467490e-02  2.4463843531300898e-02  2.4690000937301781e-02  2.4957230821508712e-02  2.5262436325543158e-02  2.5591603898235688e-02  2.5934309054596875e-02  2.6340003005365861e-02  2.6761432411906441e-02  2.7729623236137098e-02  2.8268081055556536e-02  2.8821794537681980e-02  2.9434117252869815e-02  3.0063774502938699e-02  3.0713652518592052e-02  3.1391077976929041e-02  3.2081331676249721e-02  3.2797639209718094e-02  3.3514974588018047e-02  3.4256829817542744e-02  3.5011354978353462e-02  3.5781626203601223e-02  3.6558847975875768e-02  3.7327082872932710e-02  3.8085412650742410e-02  3.8838335425702177e-02  3.9596040420562348e-02  4.0355884742542800e-02  4.1110423773673022e-02  4.1846280574380570e-02  4.2562231754160185e-02  4.3257212607731056e-02  4.3941148753203235e-02  4.4588002915930645e-02  4.5215618677006721e-02  4.5829098333946210e-02  4.6389735251660166e-02  4.6936028570296641e-02  4.7452840989498833e-02  4.7945761142515204e-02  4.8394675491734158e-02  4.8809024174779524e-02  4.9187625207344786e-02  4.9528638945541346e-02  4.9835279099510049e-02  5.0095865499733119e-02  5.0328441330841980e-02  5.0513370130627303e-02  5.0678201341552986e-02  5.0752658509750005e-02  5.0822431896967710e-02  5.0545830051419112e-02  4.9951323511421404e-02  4.9232408441233097e-02  4.8482697907287847e-02  4.7743560032243143e-02  4.7043574789145254e-02  4.6398057554927589e-02  4.5803939809516581e-02  4.5246922186831184e-02  4.4729206494377879e-02  4.4250984151396618e-02  4.3808171368441153e-02  4.3382874912183858e-02  4.2983541747419883e-02  4.2597679737817834e-02  4.2218673848715575e-02  4.1849648320414719e-02  4.1484097986744739e-02  4.1114958054083293e-02  4.0731790657911375e-02  4.0344317870523956e-02  3.9936721700624997e-02  3.9513135244908598e-02  3.9060002470878596e-02  3.8585011611158362e-02  3.8085137144869434e-02  3.7547386633868689e-02  3.6980292437972961e-02  3.6364219714987767e-02  3.5722572534751897e-02  3.5038981238580867e-02  3.4318025705012231e-02  3.3551681802444694e-02  3.2746210286936937e-02  3.1903824217203267e-02  3.1024474277225701e-02  3.0110416385618032e-02  2.9163848166911609e-02  2.8182506038481117e-02  2.7155946442028931e-02  2.6117944879114799e-02  2.5057624124534147e-02  2.3982525389748596e-02  2.2898119522911011e-02  2.1792083592701239e-02  2.0696621319491241e-02  1.9580667321477053e-02  1.8472290605004476e-02  1.7381220021604159e-02  1.6308513405596792e-02  1.5256370632754975e-02  1.4208856953228067e-02  1.3209742319841102e-02  1.2229148276520330e-02  1.1278723364481122e-02  1.0377346630378764e-02  9.5024896487443892e-03  8.6710132496950927e-03  7.8852854876004068e-03  7.1381632457085372e-03  6.4429453525053021e-03  5.7841725451600549e-03  5.1744968645143193e-03  4.6064851697152709e-03  4.0822978860528859e-03  3.5978972606436352e-03  3.1496621972266540e-03  2.7480150890873854e-03  2.3767029940502085e-03  2.0435296762016434e-03  1.7421564024404695e-03  1.4740136090840290e-03  1.2324920518814553e-03  1.0212756621961001e-03  8.3262592591568779e-04  6.6879729010955330e-04  5.2908415559370218e-04  4.0761619111387388e-04  3.0659699778210050e-04  2.2240047781519733e-04  1.5506032101518722e-04  1.0380837769948206e-04  6.7055714272430496e-05  4.4662360624729582e-05  3.5351453128670464e-05  3.8158974038212103e-05  5.2404267160456357e-05  7.6842961708200171e-05  1.1081622586992367e-04  1.5318897254937259e-04  2.0502999781278917e-04  2.6597817629577387e-04  3.3746982944962109e-04  4.1773166249167590e-04  5.0963033133198568e-04  6.0928212648755648e-04  7.1718000400487932e-04  8.2208842845703939e-04  9.0855300924300479e-04  9.5214189979423694e-04  9.4918120659009269e-04  9.4764646484512931e-04  9.3726805777505438e-04  9.2947427591177976e-04  9.1937321865856827e-04  9.0647306422770809e-04  8.9331936837695562e-04  8.7629404402211767e-04  8.5960920379084206e-04  8.4097974609659569e-04  8.2066557665944290e-04  7.9806198466864054e-04  7.7384140967505814e-04  7.4846689909457466e-04  7.2166201795413262e-04  6.9360211276307761e-04  6.6371213232230210e-04  6.3243659845170031e-04  6.0063611552082737e-04  5.6822186711866208e-04  5.3422049073523778e-04  5.0011648605358886e-04  4.6584079962823214e-04  4.3100782586036346e-04  3.9678247092405153e-04  3.6432276478996588e-04  3.3131988802465186e-04  2.9901125908616421e-04  2.6786213397736111e-04  2.3750493189474524e-04  2.0991336766393854e-04  1.8468514780062455e-04  1.6163267448829750e-04  1.4269261217212452e-04  1.3046897724170857e-04  1.2627684827458679e-04  1.3614383939442945e-04  1.6999229269480350e-04  2.4458206650029092e-04  3.9830755534087613e-04  6.8457364557963322e-04  2.1132124209869989e-03  3.6968018405293935e-03  6.4951913702170254e-03  1.1263470012995512e-02  1.9742053805201418e-02  3.4724324401592385e-02  6.0784419893592206e-02  1.0622325240473247e-01  1.8493106364327805e-01  3.2702578530401588e-01  5.7160172013984978e-01  1.0000000000000000e+00  1.0000000000000000e+00  1.0000000000000000e+00  1.0000000000000000e+00  1.0000000000000000e+00  1.0000000000000000e+00  1.0000000000000000e+00  1.0000000000000000e+00  1.0000000000000000e+00  1.0000000000000000e+00  1.0000000000000000e+00  1.0000000000000000e+00  1.0000000000000000e+00  1.0000000000000000e+00  1.0000000000000000e+00  1.0000000000000000e+00  1.0000000000000000e+00  1.0000000000000000e+00  1.0000000000000000e+00  1.0000000000000000e+00  1.0000000000000000e+00  1.0000000000000000e+00  1.0000000000000000e+00  1.0000000000000000e+00  1.0000000000000000e+00  1.0000000000000000e+00  1.0000000000000000e+00  1.0000000000000000e+00  1.0000000000000000e+00  1.0000000000000000e+00  1.0000000000000000e+00  1.0000000000000000e+00  1.0000000000000000e+00  1.0000000000000000e+00  1.0000000000000000e+00  1.0000000000000000e+00  1.0000000000000000e+00  1.0000000000000000e+00  1.0000000000000000e+00  1.0000000000000000e+00  1.0000000000000000e+00  1.0000000000000000e+00  1.0000000000000000e+00  1.0000000000000000e+00  1.0000000000000000e+00  1.0000000000000000e+00  1.0000000000000000e+00  1.0000000000000000e+00  1.0000000000000000e+00  1.0000000000000000e+00  1.0000000000000000e+00  1.0000000000000000e+00  1.0000000000000000e+00  1.0000000000000000e+00  1.0000000000000000e+00  1.0000000000000000e+00  1.0000000000000000e+00  1.0000000000000000e+00  1.0000000000000000e+00  1.0000000000000000e+00  1.0000000000000000e+00  1.0000000000000000e+00  1.0000000000000000e+00  1.0000000000000000e+00  1.0000000000000000e+00  1.0000000000000000e+00  1.0000000000000000e+00  1.0000000000000000e+00  1.0000000000000000e+00  1.0000000000000000e+00  1.0000000000000000e+00  1.0000000000000000e+00  1.0000000000000000e+00  1.0000000000000000e+00  1.0000000000000000e+00  1.0000000000000000e+00  1.0000000000000000e+00  1.0000000000000000e+00  1.0000000000000000e+00  1.0000000000000000e+00  1.0000000000000000e+00  1.0000000000000000e+00  1.0000000000000000e+00  1.0000000000000000e+00  1.0000000000000000e+00  1.0000000000000000e+00  1.0000000000000000e+00  1.0000000000000000e+00  1.0000000000000000e+00  1.0000000000000000e+00  1.0000000000000000e+00  1.0000000000000000e+00  1.0000000000000000e+00  1.0000000000000000e+00  1.0000000000000000e+00  1.0000000000000000e+00  1.0000000000000000e+00  1.0000000000000000e+00  1.0000000000000000e+00  1.0000000000000000e+00  1.0000000000000000e+00  1.0000000000000000e+00  1.0000000000000000e+00  1.0000000000000000e+00  1.0000000000000000e+00  1.0000000000000000e+00  1.0000000000000000e+00  1.0000000000000000e+00  1.0000000000000000e+00  1.0000000000000000e+00  5.7157116655573414e-01  3.2704099177480800e-01  1.8489437355374597e-01  1.0624116847106584e-01  6.0792069789094974e-02  3.4730283469403801e-02  1.9750344078105837e-02  1.1266425225607737e-02  6.5005026979986034e-03  3.7008188204578339e-03  2.1171062007696757e-03  6.8903543003141483e-04  4.0339716339267070e-04  2.5004680091997831e-04  1.7663831346934611e-04  1.4345319699948130e-04  1.3393994413901875e-04  1.3811980014674421e-04  1.4997313968989897e-04  1.6769711977494587e-04  1.8889041258731692e-04  2.1159810720848012e-04  2.3505376353245163e-04  2.6016104530539303e-04  2.8466942438060784e-04  3.0850057055184298e-04  3.3166593667607815e-04  3.5200719522900277e-04  3.7189116135496965e-04  3.8964530142658160e-04  4.0464141243906312e-04  4.1716885089328025e-04  4.2655932368416136e-04  4.3216482822474813e-04  4.3379246253711376e-04  4.3189825952033285e-04  4.2640496408615094e-04  4.1706374697001662e-04  4.0320396893131000e-04  3.8554475547715071e-04  3.6526614263730908e-04  3.4129033666877289e-04  3.1467815489099623e-04  2.8593187377185279e-04  2.5532204663840781e-04  2.2477808985351197e-04  1.9665286278266680e-04  1.6929636916549089e-04  1.4471519618662515e-04  1.2645608429849020e-04  1.1489947348572726e-04  1.2048516062092643e-04  1.3189692742738253e-04  1.2033048755921499e-03  1.2121770628725685e-03  1.2203258388387972e-03  1.2264096159223248e-03  1.2326635094472935e-03  1.2604604881441160e-03  1.2716248530445218e-03  1.2705938781158062e-03  1.2995702158097879e-03  1.3294908574185541e-03  1.3247438705190739e-03  1.3566707087181217e-03  1.3849230722166549e-03  1.4013846189363261e-03  1.4169829746234152e-03  1.4237841915550936e-03  1.4373567076058024e-03  1.4406213146398634e-03  1.4717854967592930e-03  1.4861126814460579e-03  1.4842487939797958e-03  1.4907313072374275e-03  1.5093676921671231e-03  1.5111986415209482e-03  1.4985494362645812e-03  1.4977943844583766e-03  1.4928610686380044e-03  1.4783720244468115e-03  1.4795749872398647e-03  1.4601389558550860e-03  1.4384671657709004e-03  1.4292353819199061e-03  1.4172793477287412e-03  1.3960854977864484e-03  1.4030719124415079e-03  1.4275547818734049e-03  1.4198226082526384e-03  1.4797696314450314e-03  1.5558088879098193e-03  1.6577395396299114e-03  1.8627202984569911e-03  2.1199278560252869e-03  2.4742439052305117e-03  2.9964934316254375e-03  3.6859366377970169e-03  4.6263246037368420e-03  5.8887160236667487e-03  7.5144896684382692e-03  9.5778019907261300e-03  1.2184736980952066e-02  1.5403530811422182e-02  1.9289707292676313e-02  2.3880894136283321e-02  2.8937820780619815e-02  3.4445159133497237e-02  4.0249596647374111e-02  4.5957105390129163e-02  5.1260991402656740e-02  5.5989700395025606e-02  5.9790322000155063e-02  6.2567037944702850e-02  6.4334317666662061e-02  6.5143638404809509e-02  6.5132900524852155e-02  6.4445107227245543e-02  6.3254837765757063e-02  6.1748875859760972e-02  6.0010688322069829e-02  5.8173049806675543e-02  5.6278267411188063e-02  5.4468784001986729e-02  5.2712892416771191e-02  5.1053334146370005e-02  4.9509536288650437e-02  4.8091152557332262e-02  4.6783352704039390e-02  4.5584228397665336e-02  4.4510138453102283e-02  4.3534848130339594e-02  4.2653788988899231e-02  4.1847313740743339e-02  4.1110432032746017e-02  4.0443045198942068e-02  3.9832723537521354e-02  3.9261521103643088e-02  3.8744547277493407e-02  3.8262108054836978e-02  3.7816860676462533e-02  3.7394147382896599e-02  3.6984633469705624e-02  3.6600327850838422e-02  3.6229025462113776e-02  3.5856847688294960e-02  3.5487136326803552e-02  3.5113507128694738e-02  3.4742138815470697e-02  3.4363619911546746e-02  3.3970431296877268e-02  3.3563403909338083e-02  3.3137608231707166e-02  3.2693844358435600e-02  3.2228821416796546e-02  3.1743670561726417e-02  3.1231257888733370e-02  3.0691226380410882e-02  3.0131428854284600e-02  2.9546481224454892e-02  2.8954173595770401e-02  2.8367440825336907e-02  2.7826126784299864e-02  2.7401208477066022e-02  1.2072443985289250e-03  1.2158323090391639e-03  1.2240773595458211e-03  1.2301568906460890e-03  1.2363869787031790e-03  1.2643789557098902e-03  1.2746584927891926e-03  1.2730966889226115e-03  1.3004436926741705e-03  1.3285175353451165e-03  1.3242915959577298e-03  1.3517953967233523e-03  1.3778692836573646e-03  1.3918549432209030e-03  1.4049625830538860e-03  1.4099741272449162e-03  1.4200503501439895e-03  1.4189082484790238e-03  1.4494137206390563e-03  1.4659815524803066e-03  1.4630752182141116e-03  1.4695538078578966e-03  1.4847977393338109e-03  1.4861120717384695e-03  1.4721240871328433e-03  1.4710305668739982e-03  1.4668316649052279e-03  1.4528029053408177e-03  1.4538183190217653e-03  1.4354668033118776e-03  1.4138383514952369e-03  1.4036308808190706e-03  1.3901027705740076e-03  1.3678913830810545e-03  1.3728265171369142e-03  1.3944123247604061e-03  1.3802934776281489e-03  1.4316688713810900e-03  1.4943424005045701e-03  1.5793658021426690e-03  1.7627545392550554e-03  1.9886394433051928e-03  2.3046315445363523e-03  2.7784958979907562e-03  3.4038155119124175e-03  4.2649160261448082e-03  5.4297967137581452e-03  6.9385215826857239e-03  8.8646376624699780e-03  1.1316274665311484e-02  1.4362590489065819e-02  1.8065221732355977e-02  2.2462689257224333e-02  2.7344143820732466e-02  3.2699159196206432e-02  3.8385751053657297e-02  4.4033385090310601e-02  4.9359309831771121e-02  5.4172685718131608e-02  5.8137577540682654e-02  6.1144977633058741e-02  6.3178057250030104e-02  6.4283298020201954e-02  6.4576309264415335e-02  6.4167969248932630e-02  6.3242279090550510e-02  6.1971790158665489e-02  6.0433556083098354e-02  5.8760830137360838e-02  5.6993403210325977e-02  5.5290505006288862e-02  5.3616738660807732e-02  5.2007668842632040e-02  5.0503175461444456e-02  4.9109075089827342e-02  4.7812620297589592e-02  4.6613507063870255e-02  4.5529955024224369e-02  4.4537872184977789e-02  4.3636095632989681e-02  4.2803084603726775e-02  4.2033070676075542e-02  4.1329869641960726e-02  4.0677846684463462e-02  4.0062913879727810e-02  3.9495805650088173e-02  3.8959216622972401e-02  3.8457119343945564e-02  3.7972668508941071e-02  3.7494957626168612e-02  3.7038000316093701e-02  3.6588374753152568e-02  3.6131604539771690e-02  3.5672819502630009e-02  3.5202467596260917e-02  3.4729187495896513e-02  3.4243635878060008e-02  3.3735809023175314e-02  3.3208795520790514e-02  3.2655997225829153e-02  3.2079351619382371e-02  3.1477918528354548e-02  3.0850854319204573e-02  3.0194304232208116e-02  2.9507851042856317e-02  2.8798968701589989e-02  2.8067048519610307e-02  2.7328656922254193e-02  2.6602468832478209e-02  2.5941034600653477e-02  2.5422201319936007e-02  7.3962629684634951e-01  5.4232544802293414e-01  3.8495439249684921e-01  2.8098334403675501e-01  2.1007201162916214e-01  1.6069558819510396e-01  1.2672310591209274e-01  1.0366031823391214e-01  8.7027856041332369e-02  7.5238565615326228e-02  6.6519634720394488e-02  5.9893079273659458e-02  5.4884589219286420e-02  5.0996350672181348e-02  4.7932635570148062e-02  4.5473703836929821e-02  4.3507392262271592e-02  4.1895756576479606e-02  4.0560570927170268e-02  3.9467592067466806e-02  3.8550501696495619e-02  3.7768693157440185e-02  3.7118408534783390e-02  3.6558841406236380e-02  3.6080530624192579e-02  3.5673648446220972e-02  3.5301140706326138e-02  3.4987280722382795e-02  3.4697151922061971e-02  3.4430183954307671e-02  3.4191467201583003e-02  3.3970532599654366e-02  3.3750476401871746e-02  3.3527285483860171e-02  3.3302709307805885e-02  3.3066888162694298e-02  3.2830692879523934e-02  3.2575538677662441e-02  3.2303299643822128e-02  3.2013004837707595e-02  3.1699438319266367e-02  3.1360663341485635e-02  3.0989139432143278e-02  3.0588152232035662e-02  3.0145351307664315e-02  2.9668122711104125e-02  2.9154880067119304e-02  2.8594916870728616e-02  2.7998515340619534e-02  2.7355510837614280e-02  2.6677930359860786e-02  2.5979388797159962e-02  2.5277015484727348e-02  2.4628557152250916e-02  2.4097845490622695e-02  8.0005364000751943e-03  1.9309255214894054e-04  3.4724353549069574e-02  4.2285367423395115e-02  2.5288087004716377e-02  9.2298115622724980e-04  2.7261379231601889e-04  4.4722003760094199e-02  3.8466092476715522e-02  1.8988211109926968e-02  2.1177712862648539e-03  1.1387826551750777e-04  3.8563968913975871e-02  4.3227323914186794e-02  7.2909096691344622e-03  1.9161442623358185e-04  4.4888858760854564e-02  2.9962457948771608e-02  3.0069274798522760e-04  8.0021853428193599e-03  4.1481988546440300e