<?xml version="1.0"?>
<VTKFile type="UnstructuredGrid"  version="0.1"  >
<UnstructuredGrid>
<Piece  NumberOfPoints="12492" NumberOfCells="24902">
<Points>
<DataArray  type="Float64"  NumberOfComponents="3"  format="ascii">-0.5 0.5 0  0.5 0.5 0  0.5 -0.5 0  -0.5 -0.5 0  -0.25 0 0  0.25 0 0  -0.4500000000001387 0.5 0  -0.4000000000002774 0.5 0  -0.3500000000004161 0.5 0  -0.3000000000005548 0.5 0  -0.2500000000006935 0.5 0  -0.2000000000008322 0.5 0  -0.1500000000009709 0.5 0  -0.1000000000011096 0.5 0  -0.05000000000124821 0.5 0  -1.376121439022882e-12 0.5 0  0.04999999999875171 0.5 0  0.09999999999889042 0.5 0  0.1499999999990291 0.5 0  0.1999999999991677 0.5 0  0.2499999999993064 0.5 0  0.2999999999994452 0.5 0  0.349999999999584 0.5 0  0.3999999999997227 0.5 0  0.4499999999998613 0.5 0  0.5 0.4500000000001387 0  0.5 0.4000000000002774 0  0.5 0.3500000000004161 0  0.5 0.3000000000005548 0  0.5 0.2500000000006935 0  0.5 0.2000000000008322 0  0.5 0.1500000000009709 0  0.5 0.1000000000011096 0  0.5 0.05000000000124821 0  0.5 1.376121439022882e-12 0  0.5 -0.04999999999875171 0  0.5 -0.09999999999889042 0  0.5 -0.1499999999990291 0  0.5 -0.1999999999991677 0  0.5 -0.2499999999993064 0  0.5 -0.2999999999994452 0  0.5 -0.349999999999584 0  0.5 -0.3999999999997227 0  0.5 -0.4499999999998613 0  0.4500000000001387 -0.5 0  0.4000000000002774 -0.5 0  0.3500000000004161 -0.5 0  0.3000000000005548 -0.5 0  0.2500000000006935 -0.5 0  0.2000000000008322 -0.5 0  0.1500000000009709 -0.5 0  0.1000000000011096 -0.5 0  0.05000000000124821 -0.5 0  1.376121439022882e-12 -0.5 0  -0.04999999999875171 -0.5 0  -0.09999999999889042 -0.5 0  -0.1499999999990291 -0.5 0  -0.1999999999991677 -0.5 0  -0.2499999999993064 -0.5 0  -0.2999999999994452 -0.5 0  -0.349999999999584 -0.5 0  -0.3999999999997227 -0.5 0  -0.4499999999998613 -0.5 0  -0.5 -0.4500000000001387 0  -0.5 -0.4000000000002774 0  -0.5 -0.3500000000004161 0  -0.5 -0.3000000000005548 0  -0.5 -0.2500000000006935 0  -0.5 -0.2000000000008322 0  -0.5 -0.1500000000009709 0  -0.5 -0.1000000000011096 0  -0.5 -0.05000000000124821 0  -0.5 -1.376121439022882e-12 0  -0.5 0.04999999999875171 0  -0.5 0.09999999999889042 0  -0.5 0.1499999999990291 0  -0.5 0.1999999999991677 0  -0.5 0.2499999999993064 0  -0.5 0.2999999999994452 0  -0.5 0.349999999999584 0  -0.5 0.3999999999997227 0  -0.5 0.4499999999998613 0  -0.2490000000000028 0 0  -0.2480000000000055 0 0  -0.2470000000000083 0 0  -0.2460000000000111 0 0  -0.2450000000000139 0 0  -0.2440000000000167 0 0  -0.2430000000000195 0 0  -0.2420000000000222 0 0  -0.241000000000025 0 0  -0.2400000000000278 0 0  -0.2390000000000305 0 0  -0.2380000000000333 0 0  -0.2370000000000361 0 0  -0.2360000000000389 0 0  -0.2350000000000417 0 0  -0.2340000000000445 0 0  -0.2330000000000472 0 0  -0.23200000000005 0 0  -0.2310000000000528 0 0  -0.2300000000000555 0 0  -0.2290000000000583 0 0  -0.2280000000000611 0 0  -0.2270000000000639 0 0  -0.2260000000000667 0 0  -0.2250000000000695 0 0  -0.2240000000000722 0 0  -0.223000000000075 0 0  -0.2220000000000778 0 0  -0.2210000000000806 0 0  -0.2200000000000834 0 0  -0.2190000000000861 0 0  -0.2180000000000889 0 0  -0.2170000000000917 0 0  -0.2160000000000944 0 0  -0.2150000000000972 0 0  -0.2140000000001 0 0  -0.2130000000001028 0 0  -0.2120000000001056 0 0  -0.2110000000001084 0 0  -0.2100000000001111 0 0  -0.2090000000001139 0 0  -0.2080000000001167 0 0  -0.2070000000001194 0 0  -0.2060000000001223 0 0  -0.205000000000125 0 0  -0.2040000000001278 0 0  -0.2030000000001306 0 0  -0.2020000000001334 0 0  -0.2010000000001361 0 0  -0.2000000000001389 0 0  -0.1990000000001417 0 0  -0.1980000000001444 0 0  -0.1970000000001473 0 0  -0.19600000000015 0 0  -0.1950000000001528 0 0  -0.1940000000001556 0 0  -0.1930000000001584 0 0  -0.1920000000001612 0 0  -0.1910000000001639 0 0  -0.1900000000001667 0 0  -0.1890000000001695 0 0  -0.1880000000001723 0 0  -0.187000000000175 0 0  -0.1860000000001778 0 0  -0.1850000000001806 0 0  -0.1840000000001834 0 0  -0.1830000000001861 0 0  -0.1820000000001889 0 0  -0.1810000000001917 0 0  -0.1800000000001945 0 0  -0.1790000000001973 0 0  -0.1780000000002 0 0  -0.1770000000002028 0 0  -0.1760000000002056 0 0  -0.1750000000002084 0 0  -0.1740000000002112 0 0  -0.1730000000002139 0 0  -0.1720000000002167 0 0  -0.1710000000002195 0 0  -0.1700000000002223 0 0  -0.169000000000225 0 0  -0.1680000000002278 0 0  -0.1670000000002306 0 0  -0.1660000000002333 0 0  -0.1650000000002361 0 0  -0.1640000000002389 0 0  -0.1630000000002417 0 0  -0.1620000000002445 0 0  -0.1610000000002473 0 0  -0.1600000000002501 0 0  -0.1590000000002528 0 0  -0.1580000000002556 0 0  -0.1570000000002584 0 0  -0.1560000000002612 0 0  -0.1550000000002639 0 0  -0.1540000000002667 0 0  -0.1530000000002695 0 0  -0.1520000000002723 0 0  -0.151000000000275 0 0  -0.1500000000002778 0 0  -0.1490000000002806 0 0  -0.1480000000002834 0 0  -0.1470000000002862 0 0  -0.1460000000002889 0 0  -0.1450000000002917 0 0  -0.1440000000002945 0 0  -0.1430000000002973 0 0  -0.1420000000003001 0 0  -0.1410000000003028 0 0  -0.1400000000003056 0 0  -0.1390000000003084 0 0  -0.1380000000003112 0 0  -0.1370000000003139 0 0  -0.1360000000003167 0 0  -0.1350000000003195 0 0  -0.1340000000003223 0 0  -0.1330000000003251 0 0  -0.1320000000003278 0 0  -0.1310000000003306 0 0  -0.1300000000003334 0 0  -0.1290000000003362 0 0  -0.128000000000339 0 0  -0.1270000000003417 0 0  -0.1260000000003445 0 0  -0.1250000000003473 0 0  -0.1240000000003501 0 0  -0.1230000000003528 0 0  -0.1220000000003556 0 0  -0.1210000000003584 0 0  -0.1200000000003612 0 0  -0.119000000000364 0 0  -0.1180000000003667 0 0  -0.1170000000003695 0 0  -0.1160000000003722 0 0  -0.1150000000003751 0 0  -0.1140000000003778 0 0  -0.1130000000003806 0 0  -0.1120000000003834 0 0  -0.1110000000003862 0 0  -0.1100000000003889 0 0  -0.1090000000003917 0 0  -0.1080000000003945 0 0  -0.1070000000003972 0 0  -0.1060000000004 0 0  -0.1050000000004028 0 0  -0.1040000000004056 0 0  -0.1030000000004083 0 0  -0.1020000000004111 0 0  -0.1010000000004139 0 0  -0.1000000000004166 0 0  -0.09900000000041945 0 0  -0.09800000000042219 0 0  -0.097000000000425 0 0  -0.09600000000042774 0 0  -0.09500000000043055 0 0  -0.09400000000043332 0 0  -0.09300000000043609 0 0  -0.09200000000043887 0 0  -0.09100000000044162 0 0  -0.09000000000044442 0 0  -0.08900000000044717 0 0  -0.08800000000044997 0 0  -0.08700000000045272 0 0  -0.08600000000045552 0 0  -0.08500000000045829 0 0  -0.08400000000046107 0 0  -0.08300000000046384 0 0  -0.08200000000046659 0 0  -0.08100000000046939 0 0  -0.08000000000047214 0 0  -0.07900000000047494 0 0  -0.07800000000047769 0 0  -0.07700000000048049 0 0  -0.07600000000048326 0 0  -0.07500000000048604 0 0  -0.07400000000048881 0 0  -0.07300000000049159 0 0  -0.07200000000049436 0 0  -0.07100000000049711 0 0  -0.07000000000049991 0 0  -0.06900000000050266 0 0  -0.06800000000050546 0 0  -0.06700000000050824 0 0  -0.06600000000051101 0 0  -0.06500000000051379 0 0  -0.06400000000051656 0 0  -0.06300000000051934 0 0  -0.06200000000052208 0 0  -0.06100000000052488 0 0  -0.06000000000052763 0 0  -0.05900000000053043 0 0  -0.05800000000053318 0 0  -0.05700000000053598 0 0  -0.05600000000053876 0 0  -0.05500000000054153 0 0  -0.05400000000054431 0 0  -0.05300000000054705 0 0  -0.05200000000054986 0 0  -0.0510000000005526 0 0  -0.05000000000055541 0 0  -0.04900000000055815 0 0  -0.04800000000056096 0 0  -0.04700000000056373 0 0  -0.0460000000005665 0 0  -0.04500000000056928 0 0  -0.04400000000057203 0 0  -0.04300000000057483 0 0  -0.04200000000057758 0 0  -0.04100000000058038 0 0  -0.04000000000058312 0 0  -0.03900000000058593 0 0  -0.0380000000005887 0 0  -0.03700000000059148 0 0  -0.03600000000059425 0 0  -0.035000000000597 0 0  -0.0340000000005998 0 0  -0.03300000000060255 0 0  -0.03200000000060535 0 0  -0.0310000000006081 0 0  -0.0300000000006109 0 0  -0.02900000000061367 0 0  -0.02800000000061645 0 0  -0.02700000000061922 0 0  -0.026000000000622 0 0  -0.02500000000062477 0 0  -0.02400000000062752 0 0  -0.02300000000063032 0 0  -0.02200000000063307 0 0  -0.02100000000063587 0 0  -0.02000000000063865 0 0  -0.01900000000064142 0 0  -0.0180000000006442 0 0  -0.01700000000064697 0 0  -0.01600000000064974 0 0  -0.01500000000065249 0 0  -0.01400000000065529 0 0  -0.01300000000065804 0 0  -0.01200000000066084 0 0  -0.01100000000066362 0 0  -0.01000000000066639 0 0  -0.009000000000669167 0 0  -0.008000000000671942 0 0  -0.007000000000674717 0 0  -0.006000000000677463 0 0  -0.005000000000680266 0 0  -0.004000000000683013 0 0  -0.003000000000684566 0 0  -0.002000000000685953 0 0  -0.00100000000068734 0 0  -6.887546089018315e-13 0 0  0.0009999999993126618 0 0  0.00199999999931405 0 0  0.002999999999315439 0 0  0.003999999999316939 0 0  0.004999999999319715 0 0  0.005999999999322492 0 0  0.006999999999325268 0 0  0.007999999999327989 0 0  0.008999999999330766 0 0  0.009999999999333598 0 0  0.01099999999933637 0 0  0.01199999999933909 0 0  0.01299999999934193 0 0  0.0139999999993447 0 0  0.01499999999934748 0 0  0.0159999999993502 0 0  0.01699999999935303 0 0  0.01799999999935581 0 0  0.01899999999935853 0 0  0.01999999999936136 0 0  0.02099999999936414 0 0  0.02199999999936691 0 0  0.02299999999936964 0 0  0.02399999999937247 0 0  0.02499999999937524 0 0  0.02599999999937797 0 0  0.0269999999993808 0 0  0.02799999999938357 0 0  0.02899999999938635 0 0  0.02999999999938907 0 0  0.0309999999993919 0 0  0.03199999999939468 0 0  0.03299999999939746 0 0  0.03399999999940023 0 0  0.03499999999940301 0 0  0.03599999999940579 0 0  0.03699999999940851 0 0  0.03799999999941134 0 0  0.03899999999941411 0 0  0.03999999999941689 0 0  0.04099999999941967 0 0  0.04199999999942244 0 0  0.04299999999942522 0 0  0.04399999999942794 0 0  0.04499999999943077 0 0  0.04599999999943355 0 0  0.04699999999943633 0 0  0.0479999999994391 0 0  0.04899999999944188 0 0  0.04999999999944466 0 0  0.05099999999944743 0 0  0.05199999999945021 0 0  0.0529
[...]
<PointData  Scalars="f_32"> 
<DataArray  type="Float64"  Name="f_32"  format="ascii">3.7562064988830940e-02  4.3156388365491426e-02  4.8584064066435069e-02  4.1402919310219062e-02  1.0000000000000000e+00  1.0000762545819821e+00  3.2985466738909119e-02  2.5443710460825882e-02  1.8067218190739431e-02  1.1685260474844915e-02  7.1206428564153830e-03  3.8115863330729196e-03  2.6737168985993842e-03  2.1416556891607885e-03  2.0369140292358051e-03  2.0291493927584881e-03  2.0283088986104785e-03  2.1914178426299231e-03  3.0509986218061518e-03  5.1700814549996855e-03  8.8268261959940936e-03  1.3597970040076178e-02  2.1631843723659630e-02  2.8682126480082698e-02  3.7333559705540288e-02  4.4383969484724929e-02  4.6086156567609053e-02  5.2097186858517469e-02  5.7357325590814565e-02  6.2355666645582744e-02  6.6893067274827439e-02  6.3136621254152786e-02  4.9786318333215743e-02  3.2211859055568746e-02  2.4377266362320588e-02  3.1141378390618091e-02  4.7836291314570498e-02  6.0906816755302316e-02  6.4701875282698870e-02  6.0804636664247590e-02  5.5215752047843777e-02  4.7544775306474336e-02  4.3053535837636658e-02  4.6387647008521306e-02  3.2214401826536808e-02  2.3482869770316963e-02  1.7629823107944448e-02  1.2209011566342583e-02  8.7786920112537786e-03  5.8713111317956132e-03  3.7164745881716334e-03  2.2684988346641731e-03  1.3599967461187773e-03  9.4276086991197921e-04  1.1194278629396235e-03  1.6600348090495323e-03  3.0252666374898482e-03  4.8283445106898429e-03  7.4562708824006301e-03  1.0580930125865256e-02  1.4438283921008243e-02  1.9626804324628488e-02  2.7832523955049100e-02  3.9912077393746727e-02  3.8497606455170107e-02  4.4271038756477928e-02  5.0304556535196519e-02  6.0127404218548557e-02  6.8854548853692563e-02  6.7438960314212398e-02  5.8937124692966379e-02  4.1043536149361209e-02  2.5771224112414844e-02  3.6406540214057051e-02  5.4684831550168296e-02  6.6718303235495491e-02  6.7323808485672418e-02  6.1887177409603020e-02  5.3186351469226748e-02  4.6893652406259145e-02  4.2055547072483837e-02  3.8909079759886236e-02  1.0000000000000000e+00  1.0000000000000000e+00  1.0000000000000000e+00  1.0000000000000000e+00  1.0000000000000000e+00  1.0000000000000000e+00  1.0000000000000000e+00  1.0000000000000000e+00  1.0000000000000000e+00  9.9999999999999989e-01  1.0000000000000000e+00  1.0000000000000000e+00  1.0000000000000000e+00  1.0000000000000000e+00  1.0000000000000000e+00  1.0000000000000000e+00  1.0000000000000000e+00  1.0000000000000000e+00  1.0000000000000000e+00  1.0000000000000000e+00  1.0000000000000000e+00  1.0000000000000000e+00  1.0000000000000000e+00  1.0000000000000000e+00  1.0000000000000000e+00  1.0000000000000000e+00  1.0000000000000000e+00  1.0000000000000000e+00  1.0000000000000000e+00  1.0000000000000000e+00  1.0000000000000000e+00  1.0000000000000000e+00  1.0000000000000000e+00  1.0000000000000000e+00  1.0000000000000000e+00  9.9999999999999989e-01  1.0000000000000000e+00  1.0000000000000000e+00  1.0000000000000000e+00  1.0000000000000000e+00  1.0000000000000000e+00  1.0000000000000000e+00  1.0000000000000000e+00  1.0000000000000000e+00  1.0000000000000000e+00  1.0000000000000000e+00  1.0000000000000000e+00  1.0000000000000000e+00  1.0000000000000000e+00  1.0000000000000000e+00  1.0000000000000000e+00  1.0000000000000000e+00  1.0000000000000000e+00  1.0000000000000000e+00  1.0000000000000000e+00  1.0000000000000000e+00  1.0000000000000000e+00  1.0000000000000000e+00  1.0000000000000000e+00  1.0000000000000000e+00  1.0000000000000000e+00  1.0000000000000000e+00  1.0000000000000000e+00  1.0000000000000000e+00  1.0000000000000000e+00  1.0000000000000000e+00  1.0000000000000000e+00  1.0000000000000000e+00  1.0000000000000000e+00  1.0000000000000000e+00  1.0000000000000000e+00  1.0000000000000000e+00  1.0000000000000000e+00  1.0000000000000000e+00  1.0000000000000000e+00  1.0000000000000000e+00  1.0000000000000000e+00  1.0000000000000000e+00  1.0000000000000000e+00  1.0000000000000000e+00  1.0000000000000000e+00  1.0000000000000000e+00  1.0000000000000000e+00  1.0000000000000000e+00  1.0000000000000000e+00  1.0000000000000000e+00  1.0000000000000000e+00  1.0000000000000000e+00  1.0000000000000000e+00  1.0000000000000000e+00  1.0000000000000000e+00  1.0000000000000000e+00  1.0000000000000000e+00  1.0000000000000000e+00  1.0000000000000000e+00  1.0000000000000000e+00  1.0000000000000000e+00  1.0000000000000000e+00  1.0000000000000000e+00  1.0000000000000000e+00  1.0000000000000000e+00  1.0000000000000000e+00  1.0000000000000000e+00  1.0000000000000000e+00  1.0000000000000000e+00  1.0000000000000000e+00  1.0000000000000000e+00  1.0000000000000000e+00  1.0000000000000000e+00  1.0000000000000000e+00  1.0000000000000000e+00  1.0000000000000000e+00  1.0000000000000000e+00  1.0000000000000000e+00  1.0000000000000000e+00  1.0000000000000000e+00  1.0000000000000000e+00  1.0000000000000000e+00  1.0000000000000000e+00  1.0000000000000000e+00  1.0000000000000000e+00  1.0000000000000000e+00  1.0000000000000000e+00  1.0000000000000000e+00  1.0000000000000000e+00  1.0000000000000000e+00  1.0000000000000000e+00  1.0000000000000000e+00  1.0000000000000000e+00  1.0000000000000000e+00  1.0000000000000000e+00  1.0000000000000000e+00  1.0000000000000000e+00  1.0000000000000000e+00  1.0000000000000000e+00  1.0000000000000000e+00  1.0000000000000000e+00  1.0000000000000000e+00  1.0000000000000000e+00  1.0000000000000000e+00  1.0000000000000000e+00  1.0000000000000000e+00  1.0000000000000000e+00  1.0000000000000000e+00  1.0000000000000000e+00  1.0000000000000000e+00  1.0000000000000000e+00  1.0000000000000000e+00  1.0000000000000000e+00  1.0000000000000000e+00  1.0000000000000000e+00  1.0000000000000000e+00  1.0000000000000000e+00  1.0000000000000000e+00  1.0000000000000000e+00  1.0000000000000000e+00  1.0000000000000000e+00  1.0000000000000000e+00  1.0000000000000000e+00  1.0000000000000000e+00  1.0000000000000000e+00  1.0000000000000000e+00  1.0000000000000000e+00  1.0000000000000000e+00  1.0000000000000000e+00  1.0000000000000000e+00  1.0000000000000000e+00  1.0000000000000000e+00  1.0000000000000000e+00  1.0000000000000000e+00  1.0000000000000000e+00  1.0000000000000000e+00  1.0000000000000000e+00  1.0000000000000000e+00  1.0000000000000000e+00  1.0000000000000000e+00  1.0000000000000000e+00  1.0000000000000000e+00  1.0000000000000000e+00  1.0000000000000000e+00  1.0000000000000000e+00  1.0000000000000000e+00  1.0000000000000000e+00  1.0000000000000000e+00  1.0000000000000000e+00  1.0000000000000000e+00  1.0000000000000000e+00  1.0000000000000000e+00  1.0000000000000000e+00  1.0000000000000000e+00  9.9999999999999989e-01  1.0000000000000000e+00  1.0000000000000000e+00  1.0000000000000000e+00  1.0000000000000000e+00  1.0000000000000000e+00  1.0000000000000000e+00  1.0000000000000000e+00  9.9999999999999989e-01  1.0000000000000000e+00  1.0000000000000000e+00  1.0000000000000000e+00  1.0000000000000000e+00  1.0000000000000000e+00  1.0000000000000000e+00  1.0000000000000000e+00  1.0000000000000000e+00  1.0000000000000000e+00  1.0000000000000000e+00  1.0000000000000000e+00  1.0000000000000000e+00  1.0000000000000000e+00  1.0000000000000000e+00  1.0000000000000000e+00  1.0000000000000000e+00  1.0000000000000000e+00  1.0000000000000000e+00  1.0000000000000000e+00  1.0000000000000000e+00  1.0000000000000000e+00  1.0000000000000000e+00  1.0000000000000000e+00  1.0000000000000000e+00  1.0000000000000000e+00  1.0000000000000000e+00  1.0000000000000000e+00  1.0000000000000000e+00  1.0000000000000000e+00  1.0000000000000000e+00  9.9999999999999989e-01  1.0000000000000000e+00  1.0000000000000000e+00  1.0000000000000000e+00  1.0000000000000000e+00  1.0000000000000000e+00  1.0000000000000000e+00  1.0000000000000000e+00  1.0000000000000000e+00  1.0000000000000000e+00  1.0000000000000000e+00  1.0000000000000000e+00  1.0000000000000000e+00  1.0000000000000000e+00  1.0000000000000000e+00  1.0000000000000000e+00  1.0000000000000000e+00  1.0000000000000000e+00  1.0000000000000000e+00  1.0000000000000000e+00  1.0000000000000000e+00  9.9967494812687352e-01  9.9954831596572180e-01  9.9953378448917307e-01  9.9947230011695776e-01  9.9958093963499028e-01  9.9943026362786724e-01  9.9963091542991389e-01  9.9945307672519523e-01  9.9948348727197089e-01  9.9949983866016390e-01  9.9951514082818194e-01  9.9947846572912169e-01  9.9934461204421110e-01  9.9964667340527502e-01  9.9939883371833549e-01  9.9955234546906968e-01  9.9941516250605977e-01  9.9946357579198941e-01  9.9947732545586732e-01  9.9947703574983982e-01  9.9946859007535083e-01  9.9946496229661064e-01  9.9945273615772567e-01  9.9948609975734071e-01  9.9952548423691268e-01  9.9941687554893255e-01  9.9953677594181545e-01  9.9950978513347433e-01  9.9949749015639666e-01  9.9943995393036811e-01  9.9950616703256057e-01  9.9946246051479692e-01  9.9954273612598821e-01  9.9954226032684845e-01  9.9864255112940048e-01  9.9994060606305801e-01  9.9918572592590083e-01  9.9949011764084139e-01  9.9949734801876899e-01  9.9929493178570927e-01  9.9957740882130253e-01  9.9955337675243716e-01  9.9931849277226892e-01  9.9950996685565152e-01  9.9948833837034134e-01  9.9945806669472470e-01  9.9944950269197097e-01  9.9949243786553921e-01  9.9928696494188440e-01  9.9976175605811124e-01  9.9901625058719812e-01  9.9991821070268683e-01  9.9929166175911066e-01  9.9953172265926704e-01  9.9961985098082506e-01  9.9924309405292711e-01  1.0000253960593730e+00  9.9852158288873716e-01  9.9948447708567434e-01  9.9936348524951479e-01  9.9957543186341846e-01  9.9911738798885408e-01  9.9962424732467159e-01  9.9946698920123811e-01  9.9925858168133674e-01  9.9943277334989200e-01  9.9941666074937807e-01  9.9922188425519876e-01  9.9949825213403642e-01  9.9960835364701028e-01  9.9911973558786626e-01  9.9957309340417844e-01  9.9936724404148047e-01  9.9943682967794412e-01  9.9940280542477655e-01  9.9939066440778379e-01  9.9960728548287747e-01  9.9905446576695445e-01  9.9964767159434309e-01  9.9919158683508702e-01  9.9948418771918068e-01  9.9948725718805198e-01  9.9920872404034888e-01  9.9969968463862269e-01  9.9926604790656270e-01  9.9945285210149259e-01  9.9941781522731132e-01  9.9938684004395162e-01  9.9943211687922828e-01  9.9940755576742779e-01  9.9931579203588239e-01  9.9960307599503773e-01  9.9940240836511007e-01  9.9940155453840340e-01  9.9955092824169001e-01  9.9940296337843337e-01  9.9912999210014208e-01  1.0000251276747036e+00  9.9858485012463938e-01  9.9947669252459537e-01  9.9959526768905205e-01  9.9935825837047221e-01  9.9949953425160809e-01  9.9936615789298966e-01  9.9938178889293883e-01  9.9941844569119775e-01  9.9939376518227918e-01  9.9937079172862142e-01  9.9940656107280557e-01  9.9938673951222123e-01  9.9930736315011237e-01  9.9917782624435647e-01  9.9988245018283162e-01  9.9847956751935396e-01  9.9940722265127147e-01  9.9960234146044780e-01  9.9936261386302205e-01  9.9934871897523603e-01  9.9956478832557349e-01  9.9929974121993614e-01  9.9948567784817732e-01  9.9948215951202934e-01  9.9847916015366445e-01  9.9991671100543011e-01  9.9910762418314381e-01  9.9938816357751592e-01  9.9923708168827596e-01  9.9959679275413138e-01  9.9892593114920547e-01  9.9950094668944101e-01  9.9950046724270425e-01  9.9915361450759632e-01  9.9922099220329053e-01  9.9950427785750029e-01  9.9940986719684188e-01  9.9939677589943199e-01  9.9940878359455820e-01  9.9933425520816010e-01  9.9916262920231014e-01  9.9947704595793518e-01  9.9946667742348261e-01  9.9932054923053859e-01  9.9937793350420656e-01  9.9947324100138368e-01  9.9931435054174711e-01  9.9943502365003578e-01  9.9938049567443865e-01  9.9930362695357600e-01  9.9927365935772594e-01  9.9931368855547986e-01  9.9931111525497907e-01  9.9926791023087702e-01  9.9931087097174787e-01  9.9934208746482056e-01  9.9934562027523044e-01  9.9931730132816632e-01  9.9934230598328178e-01  9.9934299429211337e-01  9.9929361177136800e-01  9.9930255448890259e-01  9.9933876544015732e-01  9.9928806175048712e-01  9.9936363978042408e-01  9.9932853492919915e-01  9.9932190902967299e-01  9.9932563883928160e-01  9.9937255108579159e-01  9.9930045470972673e-01  9.9946704365812122e-01  9.9912678952340539e-01  9.9941990430463701e-01  9.9954395226526083e-01  9.9889399604882934e-01  9.9951595213157274e-01  9.9886435947787489e-01  9.9950552295511441e-01  9.9923013349076606e-01  9.9925475083778159e-01  9.9929014818878825e-01  9.9925804030443754e-01  9.9924850038306134e-01  9.9926727380526104e-01  9.9923727726723821e-01  9.9919911873776446e-01  9.9946981775585375e-01  9.9881143726965249e-01  9.9947041006475801e-01  9.9883133238155775e-01  9.9934347135427881e-01  9.9950937221360447e-01  9.9911207581172901e-01  9.9927078313839424e-01  9.9940262219581411e-01  9.9914301117176973e-01  9.9934876034214826e-01  9.9925240222274647e-01  9.9916201024175832e-01  9.9921230231141933e-01  9.9924476318095534e-01  9.9925021096193267e-01  9.9923440094976734e-01  9.9922447392097269e-01  9.9922759168947306e-01  9.9917568558926051e-01  9.9911732320669855e-01  9.9927752633811373e-01  9.9921054458311187e-01  9.9919675716921263e-01  9.9926174385563482e-01  9.9910344594552492e-01  9.9890119829142032e-01  9.9930093709794721e-01  9.9923307913792925e-01  9.9928767948374475e-01  9.9896502457366487e-01  9.9911492503591948e-01  9.9912976900087358e-01  9.9927029974960579e-01  9.9914868296964598e-01  9.9913863919682167e-01  9.9907710080384626e-01  9.9913416701782976e-01  9.9920402379428541e-01  9.9906955672681774e-01  9.9910249407542240e-01  9.9912108136703093e-01  9.9912824589600580e-01  9.9912358794706413e-01  9.9915937497401264e-01  9.9912489899996093e-01  9.9900816580916063e-01  9.9910780181736702e-01  9.9911293469354212e-01  9.9904785149304309e-01  9.9915477434005817e-01  9.9918998865581132e-01  9.9930423336792840e-01  9.9929339638286385e-01  9.9926211566903922e-01  1.0011311663736888e+00  1.0014267561560928e+00  9.9928728346959816e-01  9.9922027804970970e-01  9.9909364636361497e-01  9.9909086467963193e-01  9.9911601270905848e-01  9.9911755742285557e-01  9.9916318361598189e-01  9.9959830783459991e-01  2.5803169332459889e-04  9.2937777160264964e-03  1.0431515052051938e-02  1.0169747403920601e-03  9.4344083500596046e-03  1.7186131816980330e-03  1.8130918609427745e-03  6.8913806044243507e-03  7.5894586005203265e-03  1.7507479264451151e-02  1.4566452462070771e-02  1.6297412070525524e-02  1.0108564486180195e-02  2.2145687071377467e-02  7.0461203667982003e-02  5.7318214314807998e-02  5.2111319322400221e-02  6.9767684918576350e-02  7.1735035056374630e-02  2.8931339114094531e-03  7.7915741613138613e-04  1.5008965397039900e-02  7.0957361148773200e-04  1.7627606237566428e-03  4.3302283031081057e-03  2.8366103723440890e-03  1.2639349658817713e-02  7.4867044572280517e-03  8.2321249571835967e-03  1.8826937286951805e-02  1.4589727850284642e-02  2.1810837357356335e-02  3.6667375329826654e-02  6.0615487136892764e-02  5.5048198170009124e-02  7.3564953416196691e-02  7.6047681007969173e-02  4.0649435644264043e-02  2.0984936903313468e-02  6.8466278089753294e-02  1.0914018419219165e-01  9.3986980570645667e-02  1.2836738921380583e-01  7.6255196178173681e-02  1.1990541884723861e-01  1.1278047555237099e-01  1.2109362259478329e-01  6.0157309117919375e-02  8.8322824192975172e-02  5.2843951521878596e-02  1.3052324722566555e-01  1.5214708927141132e-01  1.2600553082969518e-01  1.1472814320388867e-01  1.5027800037770472e-01  7.7790226383672750e-02  7.8458321017002272e-02  1.1462479031173181e-01  2.0682608145619691e-01  2.5800546662797719e-01  2.2119516672643555e-01  1.5961219087593234e-01  2.2762108322729499e-01  2.0695339157060977e-01  1.6840593806840262e-01  2.3973588980531257e-01  2.1779913220932576e-01  2.0375275084291408e-01  2.3789409268972470e-01  2.5085748583119127e-01  2.5734812824448461e-01  2.1356896885076818e-01  2.6435286061160362e-01  2.7084169913727385e-01  2.2575763961462278e-01  2.8087567747573727e-01  2.8288739898674792e-01  2.8545932182766726e-01  1.7539740795312753e-01  1.9081094263752557e-01  2.1585168200059004e-01  3.0508289155600038e-01  2.9695319001860859e-01  3.2008745043605530e-01  2.6639050336728864e-01  3.2154761476518284e-01  2.0007798472157468e-01  2.4596267058109267e-01  2.4816473223727858e-01  2.2971295377152137e-01  3.1680025526533467e-01  3.3558393634807726e-01  3.6378185730753182e-01  3.7078731173826063e-01  2.7932157724145423e-01  2.7747857702168111e-01  3.4010136408943448e-01  2.5368299800541289e-01  2.6454661326352008e-01  3.0731456000119356e-01  3.0096442524742750e-01  3.7705224470397286e-01  3.5953961584536392e-01  3.6919204663849930e-01  3.5046363617453208e-01  3.9192454817786637e-01  3.7283979251708044e-01  3.5674285290827185e-01  3.0129603101135405e-01  3.6430660674920923e-01  3.9645692801223104e-01  3.9615309140051447e-01  3.8997545094424502e-01  3.3567630278176014e-01  3.0238911057655354e-01  3.7934415084847717e-01  3.9632952240338443e-01  4.0038933965605655e-01  4.1896446092923062e-01  4.1828534301882475e-01  4.1857531681468302e-01  8.0801381261242089e-02  3.8306979752633530e-01  4.0296673723530080e-01  4.0321217772514345e-01  4.2499372711609912e-01  4.5792509936951048e-01  4.5084162507276043e-01  3.7759253853862318e-01  4.3153816737453393e-01  4.2079598351240721e-01  4.1992941319877197e-01  4.4208772910325744e-01  4.2108685887336994e-01  4.4692724845974380e-01  4.3652107228728770e-01  4.7540074939355426e-01  4.8847183287567741e-01  4.5541889386979473e-01  5.1612865104311800e-01  4.7799920109263461e-01  4.7348161122814003e-01  4.7901494786093007e-01  5.0335090148287009e-01  4.5544907425292475e-01  4.8514124288246313e-01  4.7543554077440164e-01  4.7564128258458999e-01  4.8838545802489608e-01  5.1539219701117123e-01  5.2908567030666542e-01  5.0004721574573563e-01  4.9408707594487999e-01  5.2075602862456549e-01  5.0988683471764917e-01  5.0865527407361011e-01  5.1615929294517382e-01  5.3718069001399849e-01  4.7584292692851737e-01  4.8855840289540026e-01  5.1962130903447956e-01  5.2083636432110736e-01  4.7475427851153712e-01  5.4349052595238874e-02  5.2290520647680327e-01  5.4949281949243955e-01  5.7041907741835030e-01  5.4533149576045148e-01  5.8079104785477043e-01  5.4331949440411631e-01  5.4672214470397673e-01  5.3138078758524454e-01  5.5065786606877742e-01  5.2348468894401190e-01  4.5970408621775810e-01  5.3111322570795816e-01  4.9025885550148757e-01  5.2237288062453680e-01  5.6733261892705711e-01  5.2329678225205567e-01  5.2755248470175331e-01  5.5821881615402991e-01  5.1327452170521959e-01  5.3629134742989548e-01  5.4504643744699344e-01  5.4412470676215274e-01  5.8269492433255121e-01  5.6993600437366754e-01  5.3964193548409523e-01  5.6467049932055657e-01  5.8239386455113185e-01  5.9261888215802938e-01  5.7334140330590777e-01  6.0924053033925274e-01  5.7221292787765110e-01  6.0214809850241335e-01  5.8884189160660050e-01  5.5950606523386304e-01  5.9140380417744742e-01  5.0517938275218366e-01  6.1034102657943956e-01  6.1271980462395959e-01  5.3447252340606888e-01  6.1548190394589375e-01  6.1348528584064299e-01  6.0508728989976723e-01  1.3009884245854979e-03  7.0366159937095354e-04  5.4975448759739931e-01  5.6529761340689400e-01  6.0446262910443849e-01  6.4128884637229677e-01  6.2513682117178215e-01  6.2921468276560089e-01  6.6269484133994228e-01  6.1808528038394572e-01  6.4811997169100377e-01  6.2509525179978642e-01  6.5651462592119936e-01  6.1773136359064629e-01  6.3337087314817742e-01  6.6802895124774642e-01  1.0355837288690699e-02  6.2464203401146845e-01  6.6752741071243349e-01  5.9631727056931494e-01  5.9944766659710835e-01  6.2006698299905028e-01  6.3505567901276982e-01  8.9000534030396119e-03  6.4433207878145105e-01  6.2356087385365078e-01  6.1939969528496075e-01  6.1996834257604261e-01  6.5718525471376055e-01  6.5360055827093300e-01  6.0753053131753421e-01  4.7329219956260071e-01  6.5282835266830797e-01  6.4642888758635908e-01  6.5673229052830895e-01  6.2664428268012085e-01  6.6009816163787494e-01  4.0489984135323354e-01  6.2311176566667348e-01  6.3292934075509766e-01  6.6204124023117950e-01  6.6698664435850052e-01  6.8606515750708934e