<?xml version="1.0"?>
<VTKFile type="UnstructuredGrid"  version="0.1"  >
<UnstructuredGrid>
<Piece  NumberOfPoints="15540" NumberOfCells="30546">
<Points>
<DataArray  type="Float64"  NumberOfComponents="3"  format="ascii">0 0 0  -0.5 -0.5 0  0.5 -0.5 0  0.5 0 0  0.5 0.5 0  -0.5 0.5 0  -0.5 0.0001 0  -0.5 -0.0001 0  0.5 0.1 0  0.5 -0.1 0  -0.5 -0.1 0  -0.5 0.1 0  -0.4900000000000277 -0.5 0  -0.4800000000000555 -0.5 0  -0.4700000000000832 -0.5 0  -0.4600000000001109 -0.5 0  -0.4500000000001387 -0.5 0  -0.4400000000001664 -0.5 0  -0.4300000000001942 -0.5 0  -0.4200000000002219 -0.5 0  -0.4100000000002497 -0.5 0  -0.4000000000002774 -0.5 0  -0.3900000000003052 -0.5 0  -0.3800000000003328 -0.5 0  -0.3700000000003606 -0.5 0  -0.3600000000003883 -0.5 0  -0.3500000000004161 -0.5 0  -0.3400000000004438 -0.5 0  -0.3300000000004716 -0.5 0  -0.3200000000004993 -0.5 0  -0.3100000000005271 -0.5 0  -0.3000000000005548 -0.5 0  -0.2900000000005825 -0.5 0  -0.2800000000006103 -0.5 0  -0.2700000000006381 -0.5 0  -0.2600000000006658 -0.5 0  -0.2500000000006935 -0.5 0  -0.2400000000007212 -0.5 0  -0.230000000000749 -0.5 0  -0.2200000000007767 -0.5 0  -0.2100000000008044 -0.5 0  -0.2000000000008322 -0.5 0  -0.19000000000086 -0.5 0  -0.1800000000008877 -0.5 0  -0.1700000000009154 -0.5 0  -0.1600000000009431 -0.5 0  -0.1500000000009709 -0.5 0  -0.1400000000009986 -0.5 0  -0.1300000000010264 -0.5 0  -0.1200000000010541 -0.5 0  -0.1100000000010818 -0.5 0  -0.1000000000011096 -0.5 0  -0.09000000000113734 -0.5 0  -0.08000000000116503 -0.5 0  -0.07000000000119283 -0.5 0  -0.06000000000122058 -0.5 0  -0.05000000000124827 -0.5 0  -0.04000000000127607 -0.5 0  -0.03000000000130376 -0.5 0  -0.02000000000133151 -0.5 0  -0.01000000000135925 -0.5 0  -1.376121439022882e-12 -0.5 0  0.009999999998640763 -0.5 0  0.01999999999866864 -0.5 0  0.02999999999869629 -0.5 0  0.03999999999872406 -0.5 0  0.04999999999875182 -0.5 0  0.05999999999877947 -0.5 0  0.06999999999880724 -0.5 0  0.079999999998835 -0.5 0  0.08999999999886266 -0.5 0  0.09999999999889042 -0.5 0  0.1099999999989182 -0.5 0  0.1199999999989459 -0.5 0  0.1299999999989737 -0.5 0  0.1399999999990014 -0.5 0  0.1499999999990291 -0.5 0  0.1599999999990568 -0.5 0  0.1699999999990847 -0.5 0  0.1799999999991124 -0.5 0  0.1899999999991401 -0.5 0  0.1999999999991678 -0.5 0  0.2099999999991955 -0.5 0  0.2199999999992234 -0.5 0  0.2299999999992511 -0.5 0  0.2399999999992788 -0.5 0  0.2499999999993066 -0.5 0  0.2599999999993342 -0.5 0  0.269999999999362 -0.5 0  0.2799999999993897 -0.5 0  0.2899999999994175 -0.5 0  0.2999999999994452 -0.5 0  0.3099999999994729 -0.5 0  0.3199999999995007 -0.5 0  0.3299999999995284 -0.5 0  0.3399999999995562 -0.5 0  0.3499999999995839 -0.5 0  0.3599999999996116 -0.5 0  0.3699999999996393 -0.5 0  0.379999999999667 -0.5 0  0.3899999999996949 -0.5 0  0.3999999999997226 -0.5 0  0.4099999999997503 -0.5 0  0.419999999999778 -0.5 0  0.4299999999998058 -0.5 0  0.4399999999998336 -0.5 0  0.4499999999998613 -0.5 0  0.4599999999998891 -0.5 0  0.4699999999999167 -0.5 0  0.4799999999999445 -0.5 0  0.4899999999999722 -0.5 0  0.5 -0.4902110204681464 0  0.5 -0.4804459958734807 0  0.5 -0.4707048677450883 0  0.5 -0.4609875815766065 0  0.5 -0.4512940759251849 0  0.5 -0.4416242912883993 0  0.5 -0.4319781678689807 0  0.5 -0.4223556545383647 0  0.5 -0.4127566896324213 0  0.5 -0.4031812128200121 0  0.5 -0.3936291733057916 0  0.5 -0.3841005081172659 0  0.5 -0.3745951585781932 0  0.5 -0.3651130778999337 0  0.5 -0.3556541993788045 0  0.5 -0.3462184677228392 0  0.5 -0.3368058273705318 0  0.5 -0.3274162224888609 0  0.5 -0.3180495969712945 0  0.5 -0.3087058944357755 0  0.5 -0.299385058222682 0  0.5 -0.2900870313927414 0  0.5 -0.2808117567250807 0  0.5 -0.2715591844628491 0  0.5 -0.2623292564012653 0  0.5 -0.253121909553727 0  0.5 -0.2439371050851549 0  0.5 -0.2347747685524501 0  0.5 -0.2256348634421331 0  0.5 -0.2165173209784076 0  0.5 -0.207422087829958 0  0.5 -0.1983491207029381 0  0.5 -0.1892983550950482 0  0.5 -0.1802697378305253 0  0.5 -0.1712632154965152 0  0.5 -0.1622787344187354 0  0.5 -0.1533162406595534 0  0.5 -0.1443756800160514 0  0.5 -0.1354569980180493 0  0.5 -0.1265601399261414 0  0.5 -0.1176850622761093 0  0.5 -0.1088317009011999 0  0.5 -0.09166666666668973 0  0.5 -0.08333333333337943 0  0.5 -0.07500000000006915 0  0.5 -0.06666666666675886 0  0.5 -0.05833333333344858 0  0.5 -0.05000000000013693 0  0.5 -0.04166666666678191 0  0.5 -0.03333333333342643 0  0.5 -0.02500000000006916 0  0.5 -0.01666666666671188 0  0.5 -0.00833333333335548 0  0.5 0.008333333333318314 0  0.5 0.01666666666663358 0  0.5 0.02499999999994162 0  0.5 0.03333333333325101 0  0.5 0.04166666666655769 0  0.5 0.04999999999986843 0  0.5 0.05833333333322258 0  0.5 0.06666666666657715 0  0.5 0.07499999999993352 0  0.5 0.08333333333328992 0  0.5 0.09166666666664541 0  0.5 0.1088317009011616 0  0.5 0.1176850622760307 0  0.5 0.1265601399260203 0  0.5 0.1354569980178909 0  0.5 0.1443756800158549 0  0.5 0.153316240659315 0  0.5 0.1622787344184454 0  0.5 0.1712632154961752 0  0.5 0.1802697378301332 0  0.5 0.1892983550946039 0  0.5 0.1983491207024433 0  0.5 0.2074220878294123 0  0.5 0.216517320977811 0  0.5 0.2256348634414833 0  0.5 0.2347747685517479 0  0.5 0.2439371050844009 0  0.5 0.2531219095529224 0  0.5 0.2623292564004089 0  0.5 0.2715591844619371 0  0.5 0.2808117567241139 0  0.5 0.290087031391723 0  0.5 0.2993850582216101 0  0.5 0.3087058944347426 0  0.5 0.3180495969703129 0  0.5 0.3274162224879299 0  0.5 0.3368058273696494 0  0.5 0.3462184677220051 0  0.5 0.3556541993780186 0  0.5 0.3651130778991989 0  0.5 0.3745951585775107 0  0.5 0.3841005081166359 0  0.5 0.3936291733052134 0  0.5 0.4031812128194852 0  0.5 0.412756689631945 0  0.5 0.4223556545379392 0  0.5 0.431978167868607 0  0.5 0.4416242912880781 0  0.5 0.4512940759249164 0  0.5 0.4609875815763912 0  0.5 0.4707048677449264 0  0.5 0.4804459958733726 0  0.5 0.4902110204680924 0  0.4900000000000277 0.5 0  0.4800000000000555 0.5 0  0.4700000000000832 0.5 0  0.4600000000001109 0.5 0  0.4500000000001387 0.5 0  0.4400000000001664 0.5 0  0.4300000000001942 0.5 0  0.4200000000002219 0.5 0  0.4100000000002497 0.5 0  0.4000000000002774 0.5 0  0.3900000000003052 0.5 0  0.3800000000003328 0.5 0  0.3700000000003606 0.5 0  0.3600000000003883 0.5 0  0.3500000000004161 0.5 0  0.3400000000004438 0.5 0  0.3300000000004716 0.5 0  0.3200000000004993 0.5 0  0.3100000000005271 0.5 0  0.3000000000005548 0.5 0  0.2900000000005825 0.5 0  0.2800000000006103 0.5 0  0.2700000000006381 0.5 0  0.2600000000006658 0.5 0  0.2500000000006935 0.5 0  0.2400000000007212 0.5 0  0.230000000000749 0.5 0  0.2200000000007767 0.5 0  0.2100000000008044 0.5 0  0.2000000000008322 0.5 0  0.19000000000086 0.5 0  0.1800000000008877 0.5 0  0.1700000000009154 0.5 0  0.1600000000009431 0.5 0  0.1500000000009709 0.5 0  0.1400000000009986 0.5 0  0.1300000000010264 0.5 0  0.1200000000010541 0.5 0  0.1100000000010818 0.5 0  0.1000000000011096 0.5 0  0.09000000000113734 0.5 0  0.08000000000116503 0.5 0  0.07000000000119283 0.5 0  0.06000000000122058 0.5 0  0.05000000000124827 0.5 0  0.04000000000127607 0.5 0  0.03000000000130376 0.5 0  0.02000000000133151 0.5 0  0.01000000000135925 0.5 0  1.376121439022882e-12 0.5 0  -0.009999999998640763 0.5 0  -0.01999999999866864 0.5 0  -0.02999999999869629 0.5 0  -0.03999999999872406 0.5 0  -0.04999999999875182 0.5 0  -0.05999999999877947 0.5 0  -0.06999999999880724 0.5 0  -0.079999999998835 0.5 0  -0.08999999999886266 0.5 0  -0.09999999999889042 0.5 0  -0.1099999999989182 0.5 0  -0.1199999999989459 0.5 0  -0.1299999999989737 0.5 0  -0.1399999999990014 0.5 0  -0.1499999999990291 0.5 0  -0.1599999999990568 0.5 0  -0.1699999999990847 0.5 0  -0.1799999999991124 0.5 0  -0.1899999999991401 0.5 0  -0.1999999999991678 0.5 0  -0.2099999999991955 0.5 0  -0.2199999999992234 0.5 0  -0.2299999999992511 0.5 0  -0.2399999999992788 0.5 0  -0.2499999999993066 0.5 0  -0.2599999999993342 0.5 0  -0.269999999999362 0.5 0  -0.2799999999993897 0.5 0  -0.2899999999994175 0.5 0  -0.2999999999994452 0.5 0  -0.3099999999994729 0.5 0  -0.3199999999995007 0.5 0  -0.3299999999995284 0.5 0  -0.3399999999995562 0.5 0  -0.3499999999995839 0.5 0  -0.3599999999996116 0.5 0  -0.3699999999996393 0.5 0  -0.379999999999667 0.5 0  -0.3899999999996949 0.5 0  -0.3999999999997226 0.5 0  -0.4099999999997503 0.5 0  -0.419999999999778 0.5 0  -0.4299999999998058 0.5 0  -0.4399999999998336 0.5 0  -0.4499999999998613 0.5 0  -0.4599999999998891 0.5 0  -0.4699999999999167 0.5 0  -0.4799999999999445 0.5 0  -0.4899999999999722 0.5 0  -0.5 0.4902110204681464 0  -0.5 0.4804459958734807 0  -0.5 0.4707048677450883 0  -0.5 0.4609875815766065 0  -0.5 0.4512940759251849 0  -0.5 0.4416242912883993 0  -0.5 0.4319781678689807 0  -0.5 0.4223556545383647 0  -0.5 0.4127566896324213 0  -0.5 0.4031812128200121 0  -0.5 0.3936291733057916 0  -0.5 0.3841005081172659 0  -0.5 0.3745951585781932 0  -0.5 0.3651130778999337 0  -0.5 0.3556541993788045 0  -0.5 0.3462184677228392 0  -0.5 0.3368058273705318 0  -0.5 0.3274162224888609 0  -0.5 0.3180495969712945 0  -0.5 0.3087058944357755 0  -0.5 0.299385058222682 0  -0.5 0.2900870313927414 0  -0.5 0.2808117567250807 0  -0.5 0.2715591844628491 0  -0.5 0.2623292564012653 0  -0.5 0.253121909553727 0  -0.5 0.2439371050851549 0  -0.5 0.2347747685524501 0  -0.5 0.2256348634421331 0  -0.5 0.2165173209784076 0  -0.5 0.207422087829958 0  -0.5 0.1983491207029381 0  -0.5 0.1892983550950482 0  -0.5 0.1802697378305253 0  -0.5 0.1712632154965152 0  -0.5 0.1622787344187354 0  -0.5 0.1533162406595534 0  -0.5 0.1443756800160514 0  -0.5 0.1354569980180493 0  -0.5 0.1265601399261414 0  -0.5 0.1176850622761093 0  -0.5 0.1088317009011999 0  -0.5 0.09167500000001694 0  -0.5 0.08335000000003931 0  -0.5 0.07502500000006167 0  -0.5 0.06670000000008947 0  -0.5 0.05837500000011001 0  -0.5 0.0500500000001328 0  -0.5 0.0417250000001127 0  -0.5 0.03340000000008944 0  -0.5 0.02507500000006573 0  -0.5 0.01675000000004653 0  -0.5 0.008425000000027341 
[...]
<PointData  Scalars="f_25"> 
<DataArray  type="Float64"  Name="f_25"  format="ascii">9.9999999999999989e-01  2.0701509864104468e-09  3.3142340397034726e-06  9.9485947987568202e-01  1.4522876870415054e-06  2.0525656987388389e-08  1.0000000000000000e+00  1.0000000000000000e+00  2.0822034282261411e-03  1.1729214383561376e-03  1.1821040747492960e-03  1.1815697937404258e-03  2.3022892682633614e-09  2.8660422991654786e-09  3.6071947588854650e-09  4.4192031838548009e-09  5.1951200231641373e-09  5.9465268354688387e-09  6.6708288948814956e-09  7.4235363151342159e-09  8.1496716197713965e-09  8.8998922406564340e-09  9.6808459096479465e-09  1.0559828467703039e-08  1.1491526052947800e-08  1.2507510772707518e-08  1.3638478812298577e-08  1.4912871397774684e-08  1.6403176441622228e-08  1.8014346697713912e-08  1.9823359418649796e-08  2.1867402884452731e-08  2.4049569664504241e-08  2.6455195611998795e-08  2.9168570637295493e-08  3.2013329177420586e-08  3.5156151983177359e-08  3.8561792803401398e-08  4.2237654572480412e-08  4.6291933546350886e-08  5.0515385051059013e-08  5.5175233291946106e-08  6.0082442416822594e-08  6.5334991321611213e-08  7.0915249585763213e-08  7.6902051409483383e-08  8.3231959649143588e-08  8.9880154129658838e-08  9.6908472132431551e-08  1.0434074751156345e-07  1.1213054035408784e-07  1.2022197967992196e-07  1.2874260952263327e-07  1.3766249046171105e-07  1.4682085858084281e-07  1.5644141496301223e-07  1.6632347918567366e-07  1.7669146119120841e-07  1.8723179625717222e-07  1.9810621619127892e-07  2.0938854102723626e-07  2.2088443995250251e-07  2.3268090255596440e-07  2.4475705692996138e-07  2.5722770356495447e-07  2.6995654638748177e-07  2.8270681601704607e-07  2.9575544070599426e-07  3.0908940284229626e-07  3.2271487028308619e-07  3.3652232628800837e-07  3.5045697860217084e-07  3.6488797645440226e-07  3.7960252291475675e-07  3.9423680790791590e-07  4.0926465979940890e-07  4.2465435879179641e-07  4.4008248655506638e-07  4.5610115714209701e-07  4.7222363027780866e-07  4.8871359574502229e-07  5.0572388691704363e-07  5.2319415204173574e-07  5.4117615459736946e-07  5.5963580689212917e-07  5.7841628335394397e-07  5.9795695835956238e-07  6.1836986460270813e-07  6.3940605047894705e-07  6.6150790158642675e-07  6.8496003490817907e-07  7.0932433714912450e-07  7.3550548912777926e-07  7.6288735393615935e-07  7.9200368748817582e-07  8.2347425430733481e-07  8.5789291180270802e-07  8.9502980916549609e-07  9.3593116109415678e-07  9.8223183648149584e-07  1.0335148755449126e-06  1.0927087981757251e-06  1.1608509191144552e-06  1.2437330351969325e-06  1.3414605520506873e-06  1.4646487157898973e-06  1.6225323378052410e-06  1.8301984252339367e-06  2.1025350126385215e-06  2.4596983769302907e-06  2.9210711486173433e-06  3.0708493001359399e-06  2.6389035736544041e-06  2.3017792230462428e-06  2.0384823960017404e-06  1.8500102723943267e-06  1.7112848702397882e-06  1.6092228641828688e-06  1.5308545657683218e-06  1.4696537081761311e-06  1.4219820738278406e-06  1.3832791203048201e-06  1.3526653169922465e-06  1.3275806808566512e-06  1.3078403034797054e-06  1.2913557883332748e-06  1.2778365638925731e-06  1.2671784298999623e-06  1.2584933470272997e-06  1.2514312414515896e-06  1.2462887140693256e-06  1.2425895144863492e-06  1.2408854762826997e-06  1.2415009173321353e-06  1.2455251145427552e-06  1.2550319036163762e-06  1.2736983817947809e-06  1.3089446868623723e-06  1.3707268601119245e-06  1.4871599842169531e-06  1.7008823898908718e-06  2.0871306887555744e-06  2.8157830535150007e-06  4.1235831223894363e-06  6.5305464344868162e-06  1.0812901007472264e-05  1.8952617676349251e-05  3.3785817911272073e-05  6.1033937191291075e-05  1.1002223930335594e-04  1.9741260566826760e-04  3.5963719897352212e-04  6.5212425802906894e-04  2.0750447014601272e-03  3.6546935540867692e-03  6.4447622355093713e-03  1.1189842427334378e-02  1.9597655301990972e-02  3.4401922940950361e-02  6.0180435226802782e-02  1.0527628318504448e-01  1.8361615367954287e-01  3.2595059876126914e-01  5.7229763878414819e-01  9.8539885216405043e-01  5.7403985028637139e-01  3.3088788908990668e-01  1.8526436768871954e-01  1.0558817431947987e-01  6.0385325810691205e-02  3.4436770659521949e-02  1.9665693394285880e-02  1.1173072279160428e-02  6.4670167269254121e-03  3.6826632579287435e-03  1.1569653946250473e-03  6.3767374384493200e-04  3.4972515778094879e-04  1.9454855887894430e-04  1.0754172569965703e-04  5.9141825482791147e-05  3.2799769295055402e-05  1.8340454884604458e-05  1.0746672649436137e-05  6.4860131669206815e-06  4.1704481357049624e-06  2.8867312741477632e-06  2.2084923219089512e-06  1.8352260974200916e-06  1.6339906690112675e-06  1.5281480867254538e-06  1.4688463550509712e-06  1.4378860993487306e-06  1.4220780750562101e-06  1.4146682553831212e-06  1.4117809101311855e-06  1.4120396559014277e-06  1.4127062212035556e-06  1.4152812353694445e-06  1.4174809497667425e-06  1.4202351658859826e-06  1.4238220805178970e-06  1.4261229392613714e-06  1.4289197705975732e-06  1.4319461412044373e-06  1.4348092437331784e-06  1.4373403742803331e-06  1.4396014929275911e-06  1.4419669897151077e-06  1.4441060370969434e-06  1.4460316760652435e-06  1.4475380887422389e-06  1.4491068547588347e-06  1.4501930094258698e-06  1.4518292659304530e-06  1.4514861558219966e-06  1.4521623168023557e-06  1.4424954696601956e-06  1.4218970250921339e-06  1.3958771026120937e-06  1.3673766122324797e-06  1.3377141880840787e-06  1.3080723382993671e-06  1.2790218169157977e-06  1.2507373302012369e-06  1.2226816166388849e-06  1.1954247912653192e-06  1.1689077581219708e-06  1.1431913195509512e-06  1.1177055883630257e-06  1.0931485947959421e-06  1.0690860765883471e-06  1.0453801124702346e-06  1.0222570699947923e-06  9.9957366861583542e-07  9.7738506644501797e-07  9.5523396077425220e-07  9.3366365602919800e-07  9.1216120488911281e-07  8.9106241248552792e-07  8.6978042753279660e-07  8.4886533135562028e-07  8.2818318047684825e-07  8.0724772799073430e-07  7.8646635454394956e-07  7.6520073273014537e-07  7.4425958508291897e-07  7.2312252512211937e-07  7.0190455459232877e-07  6.8037328046275394e-07  6.5871178615294188e-07  6.3694211689015665e-07  6.1505455917264010e-07  5.9302728775648308e-07  5.7086929360553613e-07  5.4849902932608841e-07  5.2570124715807241e-07  5.0315963823735358e-07  4.8057150852287501e-07  4.5806670311425016e-07  4.3573885860301800e-07  4.1327117863826985e-07  3.9129944561547634e-07  3.6916958730022744e-07  3.4740012115661641e-07  3.2614360882853136e-07  3.0540846535353712e-07  2.8521755667252011e-07  2.6523647713279115e-07  2.4627903595276156e-07  2.2774923480022989e-07  2.0985258686810567e-07  1.9293513102150399e-07  1.7655286510776874e-07  1.6103147157873616e-07  1.4638835877137295e-07  1.3247896318719545e-07  1.1955878885256504e-07  1.0732491824490684e-07  9.6004429468019887e-08  8.5456482910737748e-08  7.5726783590862226e-08  6.6737041774861095e-08  5.8415107352932221e-08  5.0953827885456481e-08  4.4052304852293466e-08  3.7855801817381816e-08  3.2245785536411974e-08  2.7249445703295365e-08  2.2750071473408224e-08  1.8813960523626010e-08  1.5298994520191442e-08  1.2247656591903423e-08  9.6485219890410024e-09  7.3942038664414326e-09  5.5258887387315975e-09  3.9773775791350062e-09  2.7538942557011008e-09  1.8388640853331603e-09  1.2065930039115812e-09  8.5613543593911762e-10  7.5900995524782347e-10  9.0011015046923087e-10  1.2645234757703586e-09  1.8299866762573083e-09  2.5850828335730070e-09  3.5084987109007131e-09  4.6257768302587014e-09  5.9305705073518389e-09  7.4547773148228133e-09  9.1622369179853689e-09  1.1115717382311265e-08  1.3233478981630662e-08  1.5527540582513555e-08  1.7759377896847082e-08  1.9600465791784422e-08  2.0528036552225200e-08  2.0460855974375600e-08  2.0421429415993649e-08  2.0190757624990672e-08  2.0012413371855180e-08  1.9782611217240334e-08  1.9491558040669574e-08  1.9193676139458233e-08  1.8812083419393005e-08  1.8436691714513583e-08  1.8019994155245337e-08  1.7568357087167052e-08  1.7070138583788019e-08  1.6542907619115206e-08  1.5999657353357821e-08  1.5443200193494124e-08  1.4891587753142823e-08  1.4359750650677692e-08  1.3904196309077233e-08  1.3643912633854997e-08  1.3740598201438472e-08  1.4495785328766212e-08  1.6545605941127450e-08  2.1025957599794527e-08  2.9935386562778517e-08  4.7113197318989676e-08  7.9432559096704741e-08  1.4052365063673081e-07  2.5448209640590318e-07  4.6519567084245307e-07  8.5434463176475421e-07  1.5615865562601208e-06  2.8737983755839480e-06  5.2973071849486565e-06  9.6262318419053732e-06  1.7807816035150051e-05  3.2580981242084889e-05  5.9490079772308952e-05  1.0813407690720128e-04  1.9581940912253293e-04  3.5979710553256730e-04  6.5481795241238130e-04  2.0961165727350723e-03  3.6840475278954511e-03  6.4858481243896043e-03  1.1256664987768493e-02  1.9737252582159599e-02  3.4720941335301916e-02  6.0782049353001438e-02  1.0622165163052856e-01  1.8493003603957336e-01  3.2702515526567982e-01  5.7160142369829703e-01  1.0000000000000000e+00  1.0000000000000000e+00  1.0000000000000000e+00  1.0000000000000000e+00  1.0000000000000000e+00  1.0000000000000000e+00  1.0000000000000000e+00  1.0000000000000000e+00  1.0000000000000000e+00  1.0000000000000000e+00  1.0000000000000000e+00  1.0000000000000000e+00  1.0000000000000000e+00  1.0000000000000000e+00  1.0000000000000000e+00  9.9999999999999989e-01  1.0000000000000000e+00  1.0000000000000000e+00  1.0000000000000000e+00  1.0000000000000000e+00  1.0000000000000000e+00  1.0000000000000000e+00  1.0000000000000000e+00  1.0000000000000000e+00  1.0000000000000000e+00  1.0000000000000000e+00  1.0000000000000000e+00  9.9999999999999989e-01  1.0000000000000000e+00  1.0000000000000000e+00  1.0000000000000000e+00  1.0000000000000000e+00  9.9999999999999989e-01  1.0000000000000000e+00  1.0000000000000000e+00  1.0000000000000000e+00  1.0000000000000000e+00  1.0000000000000000e+00  1.0000000000000000e+00  1.0000000000000000e+00  1.0000000000000000e+00  9.9999999999999989e-01  1.0000000000000000e+00  1.0000000000000000e+00  1.0000000000000000e+00  1.0000000000000000e+00  9.9999999999999989e-01  1.0000000000000000e+00  1.0000000000000000e+00  1.0000000000000000e+00  1.0000000000000000e+00  1.0000000000000000e+00  1.0000000000000000e+00  1.0000000000000000e+00  1.0000000000000000e+00  1.0000000000000000e+00  1.0000000000000000e+00  1.0000000000000000e+00  1.0000000000000000e+00  1.0000000000000000e+00  1.0000000000000000e+00  1.0000000000000000e+00  1.0000000000000000e+00  1.0000000000000000e+00  1.0000000000000000e+00  1.0000000000000000e+00  1.0000000000000000e+00  1.0000000000000000e+00  1.0000000000000000e+00  1.0000000000000000e+00  1.0000000000000000e+00  1.0000000000000000e+00  1.0000000000000000e+00  1.0000000000000000e+00  1.0000000000000000e+00  1.0000000000000000e+00  1.0000000000000000e+00  1.0000000000000000e+00  1.0000000000000000e+00  1.0000000000000000e+00  1.0000000000000000e+00  1.0000000000000000e+00  1.0000000000000000e+00  1.0000000000000000e+00  1.0000000000000000e+00  1.0000000000000000e+00  1.0000000000000000e+00  1.0000000000000000e+00  1.0000000000000000e+00  1.0000000000000000e+00  1.0000000000000000e+00  1.0000000000000000e+00  1.0000000000000000e+00  1.0000000000000000e+00  1.0000000000000000e+00  1.0000000000000000e+00  1.0000000000000000e+00  1.0000000000000000e+00  1.0000000000000000e+00  1.0000000000000000e+00  1.0000000000000000e+00  1.0000000000000000e+00  1.0000000000000000e+00  1.0000000000000000e+00  1.0000000000000000e+00  1.0000000000000000e+00  9.9999999999999989e-01  1.0000000000000000e+00  1.0000000000000000e+00  1.0000000000000000e+00  5.7157081540679111e-01  3.2704024578460222e-01  1.8489315725804861e-01  1.0623927489175480e-01  6.0789268514382717e-02  3.4726290650095519e-02  1.9744685395490749e-02  1.1258434749032913e-02  6.4895803356750563e-03  3.6859955130048787e-03  2.0973561121945010e-03  6.5513230497641337e-04  3.5991712486006962e-04  1.9537177743311906e-04  1.0819511198767323e-04  5.9557392569257618e-05  3.2619205129925809e-05  1.7823322770725260e-05  9.6363055766282345e-06  5.3004308912592942e-06  2.8749085807271350e-06  1.5624075630903893e-06  8.5498884310435694e-07  4.6568080752359864e-07  2.5461001636518437e-07  1.4039026731931738e-07  7.9064063713660783e-08  4.6492384896812809e-08  2.9041850193299203e-08  1.9800181908858173e-08  1.4946534898715521e-08  1.2476633036766200e-08  1.1241497449310274e-08  1.0612190229290696e-08  1.0271670403655650e-08  1.0062189188888437e-08  9.8788805481735996e-09  9.6695569661475550e-09  9.3931391210444821e-09  9.0470694746359596e-09  8.6479082232212159e-09  8.1667092949056854e-09  7.6199279442688170e-09  7.0155344442014625e-09  6.3542864690005824e-09  5.6754006985515661e-09  5.0117748127843128e-09  4.3329185561272630e-09  3.6647606028351093e-09  3.0695965335659643e-09  2.5480485565384509e-09  2.2841145860810915e-09  2.1068632028731838e-09  1.1789205734570633e-03  1.1823897305344225e-03  1.1825379814412180e-03  1.1783924174966281e-03  1.1725502958144956e-03  1.1865523648370393e-03  1.1823449681178078e-03  1.1649291449760395e-03  1.1761307685122758e-03  1.1877964926805022e-03  1.1644091516909922e-03  1.1772150313181403e-03  1.1866803452157439e-03  1.1848109727264327e-03  1.1827284218700693e-03  1.1728093619030643e-03  1.1708298384872510e-03  1.1599265763265053e-03  1.1781986758906357e-03  1.1818619938334652e-03  1.1710679697936317e-03  1.1707890931834193e-03  1.1852169854770973e-03  1.1857332628236973e-03  1.1735571966103016e-03  1.1765858056461164e-03  1.1783785580304915e-03  1.1720856809574660e-03  1.1845691475290247e-03  1.1782005121525588e-03  1.1702477938323674e-03  1.1758011476950983e-03  1.1763665512438829e-03  1.1653866574937390e-03  1.1765446527773620e-03  1.1925448114087096e-03  1.1657466188025756e-03  1.1823823737317524e-03  1.1817513692826040e-03  1.1674932770600528e-03  1.1922211578836884e-03  1.1867597863898663e-03  1.1722716901590897e-03  1.1877587091176007e-03  1.1776462601356091e-03  1.1860668291752720e-03  1.2155644653693929e-03  1.2378240611356816e-03  1.2541955623980459e-03  1.3072881008744245e-03  1.3634820574081490e-03  1.4194599011768769e-03  1.5295018738211172e-03  1.6179919882680404e-03  1.7096847668515373e-03  1.8244466777702455e-03  1.9016014294462437e-03  1.9484814819943702e-03  2.0430314840371631e-03  2.0702403153908923e-03  2.0792514780190539e-03  2.1042663164948256e-03  2.0665987973394421e-03  2.0824614023440837e-03  2.0817601430985094e-03  2.0761388099576278e-03  2.0537642011642173e-03  2.0163391862447516e-03  2.0443818020629847e-03  2.0488845963154366e-03  2.0363092453180693e-03  2.0204976819045103e-03  2.0229529838870835e-03  2.0168729047682502e-03  1.9836530754562404e-03  2.0001881494186003e-03  1.9892748509233466e-03  1.9695222304939339e-03  1.9885960015880188e-03  1.9764020732700362e-03  1.9622663042796825e-03  1.9858177886960967e-03  1.9957264469193290e-03  1.9756152485247394e-03  1.9686732642942698e-03  2.0181479639242339e-03  2.0116441792804251e-03  2.0136128019453102e-03  2.0137279562050976e-03  1.9874316703555198e-03  2.0097440092980996e-03  2.0265789315053787e-03  2.0270822651027066e-03  2.0279908850550765e-03  1.9971219582432592e-03  2.0260489541861974e-03  2.0422248245002676e-03  2.0516815479634395e-03  2.0412470431254381e-03  2.0464468702535198e-03  2.0586963154637138e-03  2.0704154067517472e-03  2.0718261825725722e-03  2.0853317510730984e-03  2.0956530019932565e-03  2.0850415172526610e-03  2.0904878469770742e-03  2.0858256272105178e-03  2.0669828807350346e-03  2.0963106574262000e-03  2.1103206203913136e-03  1.1794954699690340e-03  1.1825745714208881e-03  1.1827083082264936e-03  1.1785091361241442e-03  1.1727016262251372e-03  1.1871307724682036e-03  1.1825195120216652e-03  1.1653074242035930e-03  1.1759469009582748e-03  1.1871421745177314e-03  1.1659248375065314e-03  1.1762308954532206e-03  1.1856526794162727e-03  1.1836520868604024e-03  1.1814991006621357e-03  1.1721860745581886e-03  1.1690822723919526e-03  1.1560862344567567e-03  1.1758524790914490e-03  1.1836961278341505e-03  1.1735529236421036e-03  1.1746556691733529e-03  1.1869506458385304e-03  1.1876861806391699e-03  1.1745483432032985e-03  1.1772756504389622e-03  1.1795171458333863e-03  1.1732264427716454e-03  1.1848468759509732e-03  1.1787059963591017e-03  1.1700879807470001e-03  1.1742578738150446e-03  1.1733533516127537e-03  1.1623205406532746e-03  1.1733678322820578e-03  1.1899307651221118e-03  1.1625902689327782e-03  1.1791166721574545e-03  1.1773949861826594e-03  1.1627065902853374e-03  1.1881401432762384e-03  1.1816259036038061e-03  1.1669708271873902e-03  1.1812467598852853e-03  1.1665967399500843e-03  1.1665186029366731e-03  1.1815267294597849e-03  1.1827203097299242e-03  1.1676212495857409e-03  1.1770408216892274e-03  1.1773001478785870e-03  1.1600835970172394e-03  1.1785010928080555e-03  1.1755778366135206e-03  1.1681299636069013e-03  1.1773144663839539e-03  1.1733757181809348e-03  1.1578649855876839e-03  1.1796961462746595e-03  1.1752552805146209e-03  1.1677634536344684e-03  1.1774586615850779e-03  1.1561377558130131e-03  1.1667779200310719e-03  1.1695191809893766e-03  1.1696744126924129e-03  1.1607617997430710e-03  1.1440047796532904e-03  1.1648123116994797e-03  1.1734435731979114e-03  1.1720307459310352e-03  1.1665596810619054e-03  1.1743306813381282e-03  1.1764674049939401e-03  1.1628100608497343e-03  1.1779918954723820e-03  1.1765462666485269e-03  1.1685324487721298e-03  1.1817576615831900e-03  1.1741613633828886e-03  1.1631658803302595e-03  1.1732468901323634e-03  1.1742919640972379e-03  1.1599404154457081e-03  1.1493598009140555e-03  1.1738759589126266e-03  1.1674304827988041e-03  1.1678985883705458e-03  1.1691092335663678e-03  1.1553728391703049e-03  1.1689968478488103e-03  1.1787445345976511e-03  1.1767048092754914e-03  1.1728163691832386e-03  1.1511224112329800e-03  1.1651980940646585e-03  1.1725803268647038e-03  1.1767552178397469e-03  1.1681926866341865e-03  1.1678956573755595e-03  1.1702739724143477e-03  1.1724460559587274e-03  1.1700337136857364e-03  1.1751334399878104e-03  1.1796518523721755e-03  1.1736909740959432e-03  1.1757322578819054e-03  1.1736796027969356e-03  1.1624449915255343e-03  1.1799178716562840e-03  1.1895672926175310e-03  9.9221989421215018e-01  9.9769970635927041e-01  9.9349089660907286e-01  9.9496323943010401e-01  9.9568413880978235e-01  9.9510424500537797e-01  9.9556589816183938e-01  9.9595321680724536e-01  9.9481469209749851e-01  9.9530638637511593e-01  9.9394173277029563e-01  9.9711196424200599e-01  9.9440455698267594e-01  9.9614271826522760e-01  9.9558027231572088e-01  9.9607729389204935e-01  9.9589654224615243e-01  9.9581741318633954e-01  9.9608132012438599e-01  9.9606275232700758e-01  9.9615883949461781e-01  9.9625973087357189e-01  9.9631503478085393e-01  9.9661225130744913e-01  9.9661687362975571e-01  9.9482043279458188e-01  9.9821256675482595e-01  9.9529452727030265e-01  9.9674251941175862e-01  9.9555149462468195e-01  9.9483264489417966e-01  9.9490529348078838e-01  9.9563142408951344e-01  9.9673966413132498e-01  9.9526435187713325e-01  9.9839317632754565e-01  9.9490395916172869e-01  9.9490425473090016e-01  9.9796307192160294e-01  9.9436164421736706e-01  9.9527840449584015e-01  9.9502367128454017e-01  9.9621661818993734e-01  9.9584016436343303e-01  9.9541215299304708e-01  9.9549508568108780e-01  9.9461853944889633e-01  9.9532931733380681e-01  9.9582383809714048e-01  9.9520575718693349e-01  9.9582285827024375e-01  9.9516923352272535e-01  9.9587224313356615e-01  9.9407462391638191e-01  9.9649378344930650e-01  1.5406150202267964e-07  6.2860196066336143e-09  6.4319605424923936e-07  9.5751413355411674e-07  9.2548660060267491e-07  3.1535616988256869e-07  3.5230460917490054e-07  1.4122030252886450e-06  7.8623067801328655e-07  3.5442836208463052e-07  4.0169010588237274e-08  2.6736728908902517e-09  2.2279465846907311e-06  1.1408434093713875e-06  1.7093168537778207e-06  1.5106750689572868e-06  3.5512126705740355e-06  5.7556741071528130e-07  5.7453672651446132e-09  1.4938958446874043e-07  5.1909176182248795e