<?xml version="1.0"?>
<VTKFile type="UnstructuredGrid"  version="0.1"  >
<UnstructuredGrid>
<Piece  NumberOfPoints="15540" NumberOfCells="30546">
<Points>
<DataArray  type="Float64"  NumberOfComponents="3"  format="ascii">0 0 0  -0.5 -0.5 0  0.5 -0.5 0  0.5 0 0  0.5 0.5 0  -0.5 0.5 0  -0.5 0.0001 0  -0.5 -0.0001 0  0.5 0.1 0  0.5 -0.1 0  -0.5 -0.1 0  -0.5 0.1 0  -0.4900000000000277 -0.5 0  -0.4800000000000555 -0.5 0  -0.4700000000000832 -0.5 0  -0.4600000000001109 -0.5 0  -0.4500000000001387 -0.5 0  -0.4400000000001664 -0.5 0  -0.4300000000001942 -0.5 0  -0.4200000000002219 -0.5 0  -0.4100000000002497 -0.5 0  -0.4000000000002774 -0.5 0  -0.3900000000003052 -0.5 0  -0.3800000000003328 -0.5 0  -0.3700000000003606 -0.5 0  -0.3600000000003883 -0.5 0  -0.3500000000004161 -0.5 0  -0.3400000000004438 -0.5 0  -0.3300000000004716 -0.5 0  -0.3200000000004993 -0.5 0  -0.3100000000005271 -0.5 0  -0.3000000000005548 -0.5 0  -0.2900000000005825 -0.5 0  -0.2800000000006103 -0.5 0  -0.2700000000006381 -0.5 0  -0.2600000000006658 -0.5 0  -0.2500000000006935 -0.5 0  -0.2400000000007212 -0.5 0  -0.230000000000749 -0.5 0  -0.2200000000007767 -0.5 0  -0.2100000000008044 -0.5 0  -0.2000000000008322 -0.5 0  -0.19000000000086 -0.5 0  -0.1800000000008877 -0.5 0  -0.1700000000009154 -0.5 0  -0.1600000000009431 -0.5 0  -0.1500000000009709 -0.5 0  -0.1400000000009986 -0.5 0  -0.1300000000010264 -0.5 0  -0.1200000000010541 -0.5 0  -0.1100000000010818 -0.5 0  -0.1000000000011096 -0.5 0  -0.09000000000113734 -0.5 0  -0.08000000000116503 -0.5 0  -0.07000000000119283 -0.5 0  -0.06000000000122058 -0.5 0  -0.05000000000124827 -0.5 0  -0.04000000000127607 -0.5 0  -0.03000000000130376 -0.5 0  -0.02000000000133151 -0.5 0  -0.01000000000135925 -0.5 0  -1.376121439022882e-12 -0.5 0  0.009999999998640763 -0.5 0  0.01999999999866864 -0.5 0  0.02999999999869629 -0.5 0  0.03999999999872406 -0.5 0  0.04999999999875182 -0.5 0  0.05999999999877947 -0.5 0  0.06999999999880724 -0.5 0  0.079999999998835 -0.5 0  0.08999999999886266 -0.5 0  0.09999999999889042 -0.5 0  0.1099999999989182 -0.5 0  0.1199999999989459 -0.5 0  0.1299999999989737 -0.5 0  0.1399999999990014 -0.5 0  0.1499999999990291 -0.5 0  0.1599999999990568 -0.5 0  0.1699999999990847 -0.5 0  0.1799999999991124 -0.5 0  0.1899999999991401 -0.5 0  0.1999999999991678 -0.5 0  0.2099999999991955 -0.5 0  0.2199999999992234 -0.5 0  0.2299999999992511 -0.5 0  0.2399999999992788 -0.5 0  0.2499999999993066 -0.5 0  0.2599999999993342 -0.5 0  0.269999999999362 -0.5 0  0.2799999999993897 -0.5 0  0.2899999999994175 -0.5 0  0.2999999999994452 -0.5 0  0.3099999999994729 -0.5 0  0.3199999999995007 -0.5 0  0.3299999999995284 -0.5 0  0.3399999999995562 -0.5 0  0.3499999999995839 -0.5 0  0.3599999999996116 -0.5 0  0.3699999999996393 -0.5 0  0.379999999999667 -0.5 0  0.3899999999996949 -0.5 0  0.3999999999997226 -0.5 0  0.4099999999997503 -0.5 0  0.419999999999778 -0.5 0  0.4299999999998058 -0.5 0  0.4399999999998336 -0.5 0  0.4499999999998613 -0.5 0  0.4599999999998891 -0.5 0  0.4699999999999167 -0.5 0  0.4799999999999445 -0.5 0  0.4899999999999722 -0.5 0  0.5 -0.4902110204681464 0  0.5 -0.4804459958734807 0  0.5 -0.4707048677450883 0  0.5 -0.4609875815766065 0  0.5 -0.4512940759251849 0  0.5 -0.4416242912883993 0  0.5 -0.4319781678689807 0  0.5 -0.4223556545383647 0  0.5 -0.4127566896324213 0  0.5 -0.4031812128200121 0  0.5 -0.3936291733057916 0  0.5 -0.3841005081172659 0  0.5 -0.3745951585781932 0  0.5 -0.3651130778999337 0  0.5 -0.3556541993788045 0  0.5 -0.3462184677228392 0  0.5 -0.3368058273705318 0  0.5 -0.3274162224888609 0  0.5 -0.3180495969712945 0  0.5 -0.3087058944357755 0  0.5 -0.299385058222682 0  0.5 -0.2900870313927414 0  0.5 -0.2808117567250807 0  0.5 -0.2715591844628491 0  0.5 -0.2623292564012653 0  0.5 -0.253121909553727 0  0.5 -0.2439371050851549 0  0.5 -0.2347747685524501 0  0.5 -0.2256348634421331 0  0.5 -0.2165173209784076 0  0.5 -0.207422087829958 0  0.5 -0.1983491207029381 0  0.5 -0.1892983550950482 0  0.5 -0.1802697378305253 0  0.5 -0.1712632154965152 0  0.5 -0.1622787344187354 0  0.5 -0.1533162406595534 0  0.5 -0.1443756800160514 0  0.5 -0.1354569980180493 0  0.5 -0.1265601399261414 0  0.5 -0.1176850622761093 0  0.5 -0.1088317009011999 0  0.5 -0.09166666666668973 0  0.5 -0.08333333333337943 0  0.5 -0.07500000000006915 0  0.5 -0.06666666666675886 0  0.5 -0.05833333333344858 0  0.5 -0.05000000000013693 0  0.5 -0.04166666666678191 0  0.5 -0.03333333333342643 0  0.5 -0.02500000000006916 0  0.5 -0.01666666666671188 0  0.5 -0.00833333333335548 0  0.5 0.008333333333318314 0  0.5 0.01666666666663358 0  0.5 0.02499999999994162 0  0.5 0.03333333333325101 0  0.5 0.04166666666655769 0  0.5 0.04999999999986843 0  0.5 0.05833333333322258 0  0.5 0.06666666666657715 0  0.5 0.07499999999993352 0  0.5 0.08333333333328992 0  0.5 0.09166666666664541 0  0.5 0.1088317009011616 0  0.5 0.1176850622760307 0  0.5 0.1265601399260203 0  0.5 0.1354569980178909 0  0.5 0.1443756800158549 0  0.5 0.153316240659315 0  0.5 0.1622787344184454 0  0.5 0.1712632154961752 0  0.5 0.1802697378301332 0  0.5 0.1892983550946039 0  0.5 0.1983491207024433 0  0.5 0.2074220878294123 0  0.5 0.216517320977811 0  0.5 0.2256348634414833 0  0.5 0.2347747685517479 0  0.5 0.2439371050844009 0  0.5 0.2531219095529224 0  0.5 0.2623292564004089 0  0.5 0.2715591844619371 0  0.5 0.2808117567241139 0  0.5 0.290087031391723 0  0.5 0.2993850582216101 0  0.5 0.3087058944347426 0  0.5 0.3180495969703129 0  0.5 0.3274162224879299 0  0.5 0.3368058273696494 0  0.5 0.3462184677220051 0  0.5 0.3556541993780186 0  0.5 0.3651130778991989 0  0.5 0.3745951585775107 0  0.5 0.3841005081166359 0  0.5 0.3936291733052134 0  0.5 0.4031812128194852 0  0.5 0.412756689631945 0  0.5 0.4223556545379392 0  0.5 0.431978167868607 0  0.5 0.4416242912880781 0  0.5 0.4512940759249164 0  0.5 0.4609875815763912 0  0.5 0.4707048677449264 0  0.5 0.4804459958733726 0  0.5 0.4902110204680924 0  0.4900000000000277 0.5 0  0.4800000000000555 0.5 0  0.4700000000000832 0.5 0  0.4600000000001109 0.5 0  0.4500000000001387 0.5 0  0.4400000000001664 0.5 0  0.4300000000001942 0.5 0  0.4200000000002219 0.5 0  0.4100000000002497 0.5 0  0.4000000000002774 0.5 0  0.3900000000003052 0.5 0  0.3800000000003328 0.5 0  0.3700000000003606 0.5 0  0.3600000000003883 0.5 0  0.3500000000004161 0.5 0  0.3400000000004438 0.5 0  0.3300000000004716 0.5 0  0.3200000000004993 0.5 0  0.3100000000005271 0.5 0  0.3000000000005548 0.5 0  0.2900000000005825 0.5 0  0.2800000000006103 0.5 0  0.2700000000006381 0.5 0  0.2600000000006658 0.5 0  0.2500000000006935 0.5 0  0.2400000000007212 0.5 0  0.230000000000749 0.5 0  0.2200000000007767 0.5 0  0.2100000000008044 0.5 0  0.2000000000008322 0.5 0  0.19000000000086 0.5 0  0.1800000000008877 0.5 0  0.1700000000009154 0.5 0  0.1600000000009431 0.5 0  0.1500000000009709 0.5 0  0.1400000000009986 0.5 0  0.1300000000010264 0.5 0  0.1200000000010541 0.5 0  0.1100000000010818 0.5 0  0.1000000000011096 0.5 0  0.09000000000113734 0.5 0  0.08000000000116503 0.5 0  0.07000000000119283 0.5 0  0.06000000000122058 0.5 0  0.05000000000124827 0.5 0  0.04000000000127607 0.5 0  0.03000000000130376 0.5 0  0.02000000000133151 0.5 0  0.01000000000135925 0.5 0  1.376121439022882e-12 0.5 0  -0.009999999998640763 0.5 0  -0.01999999999866864 0.5 0  -0.02999999999869629 0.5 0  -0.03999999999872406 0.5 0  -0.04999999999875182 0.5 0  -0.05999999999877947 0.5 0  -0.06999999999880724 0.5 0  -0.079999999998835 0.5 0  -0.08999999999886266 0.5 0  -0.09999999999889042 0.5 0  -0.1099999999989182 0.5 0  -0.1199999999989459 0.5 0  -0.1299999999989737 0.5 0  -0.1399999999990014 0.5 0  -0.1499999999990291 0.5 0  -0.1599999999990568 0.5 0  -0.1699999999990847 0.5 0  -0.1799999999991124 0.5 0  -0.1899999999991401 0.5 0  -0.1999999999991678 0.5 0  -0.2099999999991955 0.5 0  -0.2199999999992234 0.5 0  -0.2299999999992511 0.5 0  -0.2399999999992788 0.5 0  -0.2499999999993066 0.5 0  -0.2599999999993342 0.5 0  -0.269999999999362 0.5 0  -0.2799999999993897 0.5 0  -0.2899999999994175 0.5 0  -0.2999999999994452 0.5 0  -0.3099999999994729 0.5 0  -0.3199999999995007 0.5 0  -0.3299999999995284 0.5 0  -0.3399999999995562 0.5 0  -0.3499999999995839 0.5 0  -0.3599999999996116 0.5 0  -0.3699999999996393 0.5 0  -0.379999999999667 0.5 0  -0.3899999999996949 0.5 0  -0.3999999999997226 0.5 0  -0.4099999999997503 0.5 0  -0.419999999999778 0.5 0  -0.4299999999998058 0.5 0  -0.4399999999998336 0.5 0  -0.4499999999998613 0.5 0  -0.4599999999998891 0.5 0  -0.4699999999999167 0.5 0  -0.4799999999999445 0.5 0  -0.4899999999999722 0.5 0  -0.5 0.4902110204681464 0  -0.5 0.4804459958734807 0  -0.5 0.4707048677450883 0  -0.5 0.4609875815766065 0  -0.5 0.4512940759251849 0  -0.5 0.4416242912883993 0  -0.5 0.4319781678689807 0  -0.5 0.4223556545383647 0  -0.5 0.4127566896324213 0  -0.5 0.4031812128200121 0  -0.5 0.3936291733057916 0  -0.5 0.3841005081172659 0  -0.5 0.3745951585781932 0  -0.5 0.3651130778999337 0  -0.5 0.3556541993788045 0  -0.5 0.3462184677228392 0  -0.5 0.3368058273705318 0  -0.5 0.3274162224888609 0  -0.5 0.3180495969712945 0  -0.5 0.3087058944357755 0  -0.5 0.299385058222682 0  -0.5 0.2900870313927414 0  -0.5 0.2808117567250807 0  -0.5 0.2715591844628491 0  -0.5 0.2623292564012653 0  -0.5 0.253121909553727 0  -0.5 0.2439371050851549 0  -0.5 0.2347747685524501 0  -0.5 0.2256348634421331 0  -0.5 0.2165173209784076 0  -0.5 0.207422087829958 0  -0.5 0.1983491207029381 0  -0.5 0.1892983550950482 0  -0.5 0.1802697378305253 0  -0.5 0.1712632154965152 0  -0.5 0.1622787344187354 0  -0.5 0.1533162406595534 0  -0.5 0.1443756800160514 0  -0.5 0.1354569980180493 0  -0.5 0.1265601399261414 0  -0.5 0.1176850622761093 0  -0.5 0.1088317009011999 0  -0.5 0.09167500000001694 0  -0.5 0.08335000000003931 0  -0.5 0.07502500000006167 0  -0.5 0.06670000000008947 0  -0.5 0.05837500000011001 0  -0.5 0.0500500000001328 0  -0.5 0.0417250000001127 0  -0.5 0.03340000000008944 0  -0.5 0.02507500000006573 0  -0.5 0.01675000000004653 0  -0.5 0.008425000000027341 
[...]
<PointData  Scalars="f_25"> 
<DataArray  type="Float64"  Name="f_25"  format="ascii">1.0000000000000000e+00  1.4018827879677635e-04  1.4611493374267029e-01  2.4386578561672170e-02  5.2150685967612014e-02  9.7563678086849724e-04  1.0000000000000000e+00  1.0000000000000000e+00  2.7819239004671720e-02  2.5760759779286133e-02  1.2081709256531752e-03  1.2042875342678002e-03  1.4267991669979528e-04  1.6628448398841022e-04  2.0491403065746859e-04  2.4939742518689621e-04  2.9350751957688112e-04  3.3682745235039569e-04  3.7878161066725338e-04  4.2213397856391837e-04  4.6395111853702806e-04  5.0702848862048595e-04  5.5185554498056347e-04  6.0188279803594633e-04  6.5451189064549440e-04  7.1109818749469790e-04  7.7319954954647952e-04  8.4222510655212047e-04  9.2199293360271809e-04  1.0074817829843045e-03  1.1026336269802984e-03  1.2094287444715814e-03  1.3227613337846644e-03  1.4470004802404940e-03  1.5864762915122972e-03  1.7321008464097534e-03  1.8923738732079991e-03  2.0654301179703328e-03  2.2516089941236796e-03  2.4563851735807532e-03  2.6689303632493836e-03  2.9029014519002393e-03  3.1485110779275903e-03  3.4106640780455343e-03  3.6884195396133931e-03  3.9855651978673023e-03  4.2987422441498170e-03  4.6267200841124470e-03  4.9724046343331847e-03  5.3366967063145400e-03  5.7172880292900565e-03  6.1111678810532311e-03  6.5245670945385369e-03  6.9554238833891644e-03  7.3960459741812335e-03  7.8566493291671122e-03  8.3283289687128281e-03  8.8203836896673625e-03  9.3193440448434209e-03  9.8301039733699625e-03  1.0356920878614895e-02  1.0891017925552148e-02  1.1436757352670119e-02  1.1990595744899437e-02  1.2557731625960957e-02  1.3135467248317427e-02  1.3707695332835524e-02  1.4287290338850180e-02  1.4877563563614976e-02  1.5475286567417918e-02  1.6074636448216901e-02  1.6672469565315734e-02  1.7286397037001505e-02  1.7909576065769015e-02  1.8517665320876994e-02  1.9138224266643338e-02  1.9769185526714420e-02  2.0387501728613977e-02  2.1028748317014307e-02  2.1660929743415467e-02  2.2302028694272828e-02  2.2958717864370721e-02  2.3625906060775539e-02  2.4304446411328576e-02  2.4996879785103957e-02  2.5690380412480472e-02  2.6410381678653280e-02  2.7160344551570948e-02  2.7924269028393990e-02  2.8729268171441332e-02  2.9585426097039541e-02  3.0474369957514312e-02  3.1436354210841400e-02  3.2446936321985531e-02  3.3532559860104810e-02  3.4720919215104826e-02  3.6038118388580002e-02  3.7482283241396762e-02  3.9103299865286364e-02  4.0975465986704956e-02  4.3091494755383555e-02  4.5586551286075576e-02  4.8529048743710057e-02  5.2164202227782036e-02  5.6530857945754347e-02  6.2120692687915771e-02  6.9394328640295252e-02  7.8943675819336284e-02  9.1503470933761849e-02  1.0779438704035278e-01  1.2857458471751232e-01  1.3401480298753937e-01  1.1251950726264673e-01  9.5285707381726495e-02  8.1865651791862878e-02  7.2221943566360011e-02  6.5128528454078127e-02  5.9875869948238555e-02  5.5849904431066653e-02  5.2679737750280696e-02  5.0152938127668294e-02  4.8044703265807572e-02  4.6303897132559002e-02  4.4808263799709057e-02  4.3546924593753374e-02  4.2409984654968209e-02  4.1381911441852555e-02  4.0484294643839951e-02  3.9637797966486671e-02  3.8832057706886094e-02  3.8095961175105969e-02  3.7355680745722257e-02  3.6683172104217579e-02  3.6007437825813754e-02  3.5348920356343572e-02  3.4711018259406208e-02  3.4095910766925690e-02  3.3503577522801781e-02  3.2905357428504409e-02  3.2336634088967149e-02  3.1748796184692785e-02  3.1180585302263301e-02  3.0625730596217492e-02  3.0090630589770982e-02  2.9578726040556579e-02  2.9064512594062453e-02  2.8583204671232387e-02  2.8110167946252249e-02  2.7659218358144579e-02  2.7230101707944519e-02  2.6806687445739226e-02  2.6450375419771684e-02  2.6101929190813757e-02  2.5491147383668634e-02  2.5239329141277373e-02  2.5012861952706501e-02  2.4828723331271327e-02  2.4657184283179947e-02  2.4516829493904036e-02  2.4423464260921998e-02  2.4350986243744262e-02  2.4290916692937196e-02  2.4308976088409248e-02  2.4342309483719175e-02  2.4503982543543443e-02  2.4631673313299372e-02  2.4793600927208968e-02  2.5003857669673717e-02  2.5235871116415926e-02  2.5510144894408802e-02  2.5823528289021132e-02  2.6161608024591589e-02  2.6513673609956649e-02  2.6930568993833951e-02  2.7363715583598573e-02  2.8359095850354891e-02  2.8912811880692113e-02  2.9482302453134702e-02  3.0112175201065516e-02  3.0759939145243751e-02  3.1428602658515568e-02  3.2125670418374677e-02  3.2836031783461068e-02  3.3573281242372473e-02  3.4311667473095581e-02  3.5075342457467795e-02  3.5852118690237474e-02  3.6645132699841050e-02  3.7445358624894544e-02  3.8236390342554084e-02  3.9017234140615323e-02  3.9792552680415400e-02  4.0572801419344738e-02  4.1355245210439602e-02  4.2132209232988459e-02  4.2889946639597040e-02  4.3627208866588371e-02  4.4342846568907870e-02  4.5047132033088209e-02  4.5713155211751837e-02  4.6359367202666132e-02  4.6991021603910048e-02  4.7568226089275530e-02  4.8130607841466840e-02  4.8662659514839730e-02  4.9170038826987214e-02  4.9632136302944094e-02  5.0058597018030920e-02  5.0448278470854639e-02  5.0799240726943758e-02  5.1114822285327377e-02  5.1383003273531451e-02  5.1622333441596932e-02  5.1812623344811931e-02  5.1982271477566573e-02  5.2058849666006206e-02  5.2130640582341119e-02  5.1845641831349126e-02  5.1233038976811085e-02  5.0492012099165574e-02  4.9718887228975495e-02  4.8956215681678218e-02  4.8233446442130554e-02  4.7566384658814173e-02  4.6951922110980336e-02  4.6375271806084271e-02  4.5838849939659990e-02  4.5342829576316010e-02  4.4883061793080797e-02  4.4441073463917881e-02  4.4025730969535465e-02  4.3624143647857057e-02  4.3229485548663245e-02  4.2845021033381517e-02  4.2464079149646221e-02  4.2079482130679635e-02  4.1680404829024950e-02  4.1276986647568840e-02  4.0852902852952254e-02  4.0412532626669058e-02  3.9941829328474211e-02  3.9448879822458649e-02  3.8930616321110875e-02  3.8373580631782277e-02  3.7786671744196622e-02  3.7149668037444523e-02  3.6486813163060031e-02  3.5781234657373977e-02  3.5037710168941694e-02  3.4247983847855795e-02  3.3418545990096193e-02  3.2551740739129809e-02  3.1647497315182738e-02  3.0708180329399537e-02  2.9736069680914027e-02  2.8728853947872258e-02  2.7675859124916571e-02  2.6611696026603893e-02  2.5525237317237409e-02  2.4424226251259291e-02  2.3314228413801628e-02  2.2182620389543915e-02  2.1062375165120880e-02  1.9921677244435023e-02  1.8789227577752639e-02  1.7674944479126820e-02  1.6579886000664516e-02  1.5506261000928959e-02  1.4437774950730361e-02  1.3419066495970125e-02  1.2419621139480986e-02  1.1451287994825443e-02  1.0533275912371159e-02  9.6425778324424980e-03  8.7963721121786503e-03  7.9969931239351148e-03  7.2371594104074953e-03  6.5303710838679474e-03  5.8608591424487329e-03  5.2414529659965377e-03  4.6645740313737581e-03  4.1323909406247878e-03  3.6407719867279625e-03  3.1860129349049354e-03  2.7786629128661046e-03  2.4022076932186673e-03  2.0645490181385455e-03  1.7592272913966212e-03  1.4876733778325154e-03  1.2431925766149287e-03  1.0294821269265968e-03  8.3870036695890494e-04  6.7311461274397952e-04  5.3200099671528358e-04  4.0941975950576563e-04  3.0759310736789213e-04  2.2286369721682210e-04  1.5521407548017358e-04  1.0381718654541126e-04  6.7108293660142368e-05  4.4966144979102592e-05  3.6090924527725910e-05  3.9519129855063841e-05  5.4533034909885164e-05  7.9876499491184029e-05  1.1488906009290517e-04  1.5842482774951571e-04  2.1159281056522565e-04  2.7402994739516689e-04  3.4721060261695398e-04  4.2932864632799940e-04  5.2332495013228148e-04  6.2523220119229674e-04  7.3556288376962057e-04  8.4283210163237706e-04  9.3124419704735046e-04  9.7580925623229689e-04  9.7275996916234501e-04  9.7115541822438158e-04  9.6049200082060559e-04  9.5245646032673915e-04  9.4204824455568811e-04  9.2876747934033516e-04  9.1521751761079132e-04  8.9769851921914321e-04  8.8051722327180679e-04  8.6134098980063017e-04  8.4043700426836689e-04  8.1718623547629018e-04  7.9228269192217803e-04  7.6619394171083190e-04  7.3864606022966796e-04  7.0981905948504633e-04  6.7912121398771837e-04  6.4701183710764304e-04  6.1437180987766716e-04  5.8111575371593211e-04  5.4624351626746375e-04  5.1127715330383781e-04  4.7614351001789402e-04  4.4045150258313219e-04  4.0539540386223100e-04  3.7215203126166339e-04  3.3837263085101393e-04  3.0530857665160614e-04  2.7344135814213257e-04  2.4239030451852399e-04  2.1416562460956599e-04  1.8835797749531733e-04  1.6475556643110533e-04  1.4531988749151830e-04  1.3266950657482283e-04  1.2808528544364502e-04  1.3760587725850800e-04  1.7115862002222077e-04  2.4548984723611784e-04  3.9901736672286322e-04  6.8511624598059412e-04  2.1135185010544536e-03  3.6970282737680861e-03  6.4953559240762066e-03  1.1263589093021269e-02  1.9742137338678422e-02  3.4724383076639526e-02  6.0784460899035220e-02  1.0622328003079075e-01  1.8493108135467209e-01  3.2702579614961713e-01  5.7160172523925001e-01  1.0000000000000000e+00  9.9999999999999989e-01  1.0000000000000000e+00  1.0000000000000000e+00  1.0000000000000000e+00  1.0000000000000000e+00  1.0000000000000000e+00  1.0000000000000000e+00  9.9999999999999989e-01  1.0000000000000000e+00  1.0000000000000000e+00  1.0000000000000000e+00  1.0000000000000000e+00  1.0000000000000000e+00  1.0000000000000000e+00  1.0000000000000000e+00  1.0000000000000000e+00  1.0000000000000000e+00  1.0000000000000000e+00  1.0000000000000000e+00  1.0000000000000000e+00  1.0000000000000000e+00  1.0000000000000000e+00  1.0000000000000000e+00  1.0000000000000000e+00  1.0000000000000000e+00  1.0000000000000000e+00  1.0000000000000000e+00  1.0000000000000000e+00  1.0000000000000000e+00  1.0000000000000000e+00  1.0000000000000000e+00  1.0000000000000000e+00  1.0000000000000000e+00  1.0000000000000000e+00  1.0000000000000000e+00  1.0000000000000000e+00  1.0000000000000000e+00  1.0000000000000000e+00  1.0000000000000000e+00  1.0000000000000000e+00  9.9999999999999989e-01  1.0000000000000000e+00  1.0000000000000000e+00  1.0000000000000000e+00  1.0000000000000000e+00  1.0000000000000000e+00  1.0000000000000000e+00  1.0000000000000000e+00  1.0000000000000000e+00  1.0000000000000000e+00  1.0000000000000000e+00  1.0000000000000000e+00  1.0000000000000000e+00  1.0000000000000000e+00  1.0000000000000000e+00  1.0000000000000000e+00  1.0000000000000000e+00  1.0000000000000000e+00  1.0000000000000000e+00  1.0000000000000000e+00  1.0000000000000000e+00  1.0000000000000000e+00  1.0000000000000000e+00  1.0000000000000000e+00  9.9999999999999989e-01  1.0000000000000000e+00  1.0000000000000000e+00  1.0000000000000000e+00  1.0000000000000000e+00  1.0000000000000000e+00  1.0000000000000000e+00  1.0000000000000000e+00  1.0000000000000000e+00  1.0000000000000000e+00  1.0000000000000000e+00  1.0000000000000000e+00  1.0000000000000000e+00  1.0000000000000000e+00  1.0000000000000000e+00  1.0000000000000000e+00  1.0000000000000000e+00  1.0000000000000000e+00  1.0000000000000000e+00  9.9999999999999989e-01  1.0000000000000000e+00  1.0000000000000000e+00  1.0000000000000000e+00  1.0000000000000000e+00  1.0000000000000000e+00  1.0000000000000000e+00  1.0000000000000000e+00  1.0000000000000000e+00  1.0000000000000000e+00  1.0000000000000000e+00  1.0000000000000000e+00  1.0000000000000000e+00  1.0000000000000000e+00  1.0000000000000000e+00  1.0000000000000000e+00  1.0000000000000000e+00  1.0000000000000000e+00  1.0000000000000000e+00  1.0000000000000000e+00  1.0000000000000000e+00  1.0000000000000000e+00  1.0000000000000000e+00  1.0000000000000000e+00  9.9999999999999989e-01  1.0000000000000000e+00  5.7157117187551498e-01  3.2704100308715756e-01  1.8489439202720576e-01  1.0624119728287772e-01  6.0792112531543027e-02  3.4730344583598916e-02  1.9750431009009889e-02  1.1266548779649306e-02  6.5006728026811671e-03  3.7010517554612941e-03  2.1174194772784964e-03  6.8958407996465721e-04  4.0410916606126531e-04  2.5095240905159401e-04  1.7778726671458162e-04  1.4487942833391840e-04  1.3568508647569477e-04  1.4021944690989307e-04  1.5245263345079374e-04  1.7060435208311818e-04  1.9226441208475864e-04  2.1545409275015455e-04  2.3941254065840614e-04  2.6505800614203196e-04  2.9010235856328121e-04  3.1447096853301731e-04  3.3816796145624345e-04  3.5900603438327231e-04  3.7938889221832866e-04  3.9761698855391087e-04  4.1304366006413338e-04  4.2596175917052347e-04  4.3569121772376668e-04  4.4156573653919692e-04  4.4339436700003952e-04  4.4163505688772566e-04  4.3620192637334326e-04  4.2683942225412043e-04  4.1286700911780675e-04  3.9500608784842444e-04  3.7445445312205201e-04  3.5010909563638675e-04  3.2303994263784501e-04  2.9375419189173988e-04  2.6251387271704628e-04  2.3127880037655232e-04  2.0239967815009844e-04  1.7420435605684022e-04  1.4868748805676259e-04  1.2942123731994723e-04  1.1676124316786679e-04  1.2124276043990533e-04  1.3154959530224295e-04  1.2037496697336692e-03  1.2127320268439290e-03  1.2210450078629044e-03  1.2273410004897353e-03  1.2338488369828362e-03  1.2619397003423723e-03  1.2734375345533067e-03  1.2727687963244210e-03  1.3021466151154277e-03  1.3324899505611832e-03  1.3281855796567254e-03  1.3605785933073131e-03  1.3893040111319526e-03  1.4062445768708179e-03  1.4223211361929001e-03  1.4295969469920325e-03  1.4436352759189237e-03  1.4473522391414380e-03  1.4789570892893031e-03  1.4936924640376677e-03  1.4922157374161883e-03  1.4990491653015590e-03  1.5179915988470262e-03  1.5200780756798162e-03  1.5076499451709907e-03  1.5070407095908421e-03  1.5021799448180358e-03  1.4877209607752884e-03  1.4888510477084310e-03  1.4692596498433700e-03  1.4473557902110698e-03  1.4377543871311384e-03  1.4253531216135891e-03  1.4035724048825225e-03  1.4098527306897000e-03  1.4335140311335817e-03  1.4248044576694987e-03  1.4837004632500496e-03  1.5585814711537398e-03  1.6592714414917233e-03  1.8631038089581523e-03  2.1191820289943731e-03  2.4725296632018695e-03  2.9941437120905691e-03  3.6834782885981302e-03  4.6246591619381761e-03  5.8893261839389286e-03  7.5192769493406973e-03  9.5897033268357215e-03  1.2208479650137594e-02  1.5446967202667939e-02  1.9364683017274675e-02  2.4004463285462012e-02  2.9131566835399764e-02  3.4735176952712617e-02  4.0664688800193492e-02  4.6523708262498797e-02  5.2001758481779875e-02  5.6918192949249935e-02  6.0904637177915659e-02  6.3854608931725426e-02  6.5768967537224582e-02  6.6694766354588819e-02  6.6767043203178542e-02  6.6127939327850785e-02  6.4958442511123260e-02  6.3448550290183425e-02  6.1687909510653893e-02  5.9814304651994027e-02  5.7872921075932192e-02  5.6014120707742178e-02  5.4205508309124344e-02  5.2492697020361058e-02  5.0897347145783089e-02  4.9429784994516855e-02  4.8075346617517861e-02  4.6832427738722100e-02  4.5718386962050127e-02  4.4706175559207063e-02  4.3791570625455002e-02  4.2954101897574620e-02  4.2188629050467975e-02  4.1495282128753537e-02  4.0861151884932827e-02  4.0267757631699271e-02  3.9730676060419655e-02  3.9229567995903811e-02  3.8767182517406358e-02  3.8328352800465301e-02  3.7903454698146481e-02  3.7504854177954898e-02  3.7119965395150341e-02  3.6734440653466836e-02  3.6351747130388294e-02  3.5965264468460448e-02  3.5581366146263754e-02  3.5190330102863050e-02  3.4784395216128132e-02  3.4364427630569072e-02  3.3925316770639320e-02  3.3467890117043569e-02  3.2988773360413164e-02  3.2489094250828389e-02  3.1961519852582235e-02  3.1405676503030978e-02  3.0829621228620666e-02  3.0227826556671156e-02  2.9618554396098187e-02  2.9015093955316915e-02  2.8458415778094447e-02  2.8021457609706549e-02  1.2076941658083831e-03  1.2163851835168295e-03  1.2247828811747579e-03  1.2310581533348797e-03  1.2375207173896867e-03  1.2657794608103025e-03  1.2763586754339761e-03  1.2751195277241876e-03  1.3028206080059944e-03  1.3312636289666572e-03  1.3274214361068924e-03  1.3553267065323376e-03  1.3818054594417139e-03  1.3961981291640681e-03  1.4097108235544659e-03  1.4151248683149792e-03  1.4255961707438551e-03  1.4248370824616839e-03  1.4557166341408587e-03  1.4726316984846092e-03  1.4700571604248616e-03  1.4768386032168971e-03  1.4923442350267518e-03  1.4938810187310443e-03  1.4800908770506039e-03  1.4791308650717388e-03  1.4750020212501288e-03  1.4610089492970418e-03  1.4619676208369719e-03  1.4434900160937537e-03  1.4216665816901681e-03  1.4111347331350703e-03  1.3972138383334741e-03  1.3744742606064426e-03  1.3787692542630960e-03  1.3996094233582851e-03  1.3845782947016323e-03  1.4349639112587963e-03  1.4965307636868232e-03  1.5803609669963034e-03  1.7626297511438617e-03  1.9873833811572946e-03  2.3023721906653923e-03  2.7755197125258705e-03  3.4005724155799139e-03  4.2622010729524828e-03  5.4289208454597311e-03  6.9411825486268217e-03  8.8733665288960682e-03  1.1335109756014298e-02  1.4398220833944273e-02  1.8127769335799980e-02  2.2567281561888388e-02  2.7510606240218841e-02  3.2951509365854552e-02  3.8751265906517965e-02  4.4538350840812119e-02  5.0027899222836882e-02  5.5020806352641734e-02  5.9167664066689940e-02  6.2349625580351141e-02  6.4535163464302700e-02  6.5766676411287278e-02  6.6155190615670670e-02  6.5809154742610107e-02  6.4918448219087058e-02  6.3657526798849826e-02  6.2109184320844800e-02  6.0411186919503396e-02  5.8605968943462615e-02  5.6861039186295377e-02  5.5140257704700907e-02  5.3481965766134738e-02  5.1929016952811685e-02  5.0487776253862839e-02  4.9145862891456851e-02  4.7903401014829677e-02  4.6779748200900438e-02  4.5750118733032592e-02  4.4813899309114370e-02  4.3948665774851473e-02  4.3148518246409133e-02  4.2417686915081659e-02  4.1739946219078596e-02  4.1100857376091017e-02  4.0511482249077850e-02  3.9953970574474300e-02  3.9432441477775103e-02  3.8929478362588012e-02  3.8433853461293917e-02  3.7960006914762992e-02  3.7494120447534453e-02  3.7021233335181876e-02  3.6546662862858126e-02  3.6060544340109205e-02  3.5571783710987868e-02  3.5070727382338879e-02  3.4547069796816182e-02  3.4004011358070227e-02  3.3434720665074635e-02  3.2841203225365864e-02  3.2222488624926410e-02  3.1577687922759015e-02  3.0902817227459634e-02  3.0197443175694276e-02  2.9469231137938055e-02  2.8717517043567752e-02  2.7959302553550433e-02  2.7213731729019437e-02  2.6534696565659186e-02  2.6002094706420481e-02  7.5760374576527811e-01  5.6283593995395065e-01  4.0198808693842508e-01  2.9427092336585225e-01  2.2020203781656492e-01  1.6831912108121722e-01  1.3252622710754414e-01  1.0820551457216658e-01  9.0648973933432034e-02  7.8209928596533390e-02  6.9012579213554651e-02  6.2029490827352811e-02  5.6754550250883697e-02  5.2663673086274718e-02  4.9442158958121839e-02  4.6859193167498425e-02  4.4794593607333094e-02  4.3103293082162090e-02  4.1702860869282272e-02  4.0556617666996420e-02  3.9594984235508487e-02  3.8775649120511783e-02  3.8094010575793216e-02  3.7507481842191354e-02  3.7006150723571114e-02  3.6579571037481842e-02  3.6189318960306562e-02  3.5860421316205891e-02  3.5556647235365980e-02  3.5277357659374960e-02  3.5027681100712457e-02  3.4796815800155194e-02  3.4567308990059900e-02  3.4334971401253793e-02  3.4101536980254872e-02  3.3856845855289933e-02  3.3612117004731996e-02  3.3348127525467848e-02  3.3066792655865269e-02  3.2767162967324855e-02  3.2443795713088482e-02  3.2094706219144002e-02  3.1712128291253971e-02  3.1299434015989766e-02  3.0843906029463602e-02  3.0353129318654345e-02  2.9825474318887584e-02  2.9249918495955370e-02  2.8637025571522940e-02  2.7976334132765419e-02  2.7280192478926411e-02  2.6562582560175275e-02  2.5841078411761521e-02  2.5174984014573343e-02  2.4629843961505707e-02  8.0989703607309005e-03  1.9564250684748805e-04  3.5435116024771361e-02  4.3319417122905449e-02  2.5691179698870088e-02  9.2591035039412989e-04  2.8031455502581441e-04  4.5826168754501406e-02  3.9320519336834822e-02  1.9308252622100029e-02  2.1382369881682481e-03  1.1813297809715135e-04  3.9512716087057809e-02  4.4293787619590165e-02  7.3516303642851286e-03  1.9778847720663893e-04  4.5906340601058172e-02  3.0552350146079609e-02  3.0209010238620382e-04  8.1125056356984443e-03  4.2526901457655378e