<?xml version="1.0"?>
<VTKFile type="UnstructuredGrid"  version="0.1"  >
<UnstructuredGrid>
<Piece  NumberOfPoints="15540" NumberOfCells="30546">
<Points>
<DataArray  type="Float64"  NumberOfComponents="3"  format="ascii">0 0 0  -0.5 -0.5 0  0.5 -0.5 0  0.5 0 0  0.5 0.5 0  -0.5 0.5 0  -0.5 0.0001 0  -0.5 -0.0001 0  0.5 0.1 0  0.5 -0.1 0  -0.5 -0.1 0  -0.5 0.1 0  -0.4900000000000277 -0.5 0  -0.4800000000000555 -0.5 0  -0.4700000000000832 -0.5 0  -0.4600000000001109 -0.5 0  -0.4500000000001387 -0.5 0  -0.4400000000001664 -0.5 0  -0.4300000000001942 -0.5 0  -0.4200000000002219 -0.5 0  -0.4100000000002497 -0.5 0  -0.4000000000002774 -0.5 0  -0.3900000000003052 -0.5 0  -0.3800000000003328 -0.5 0  -0.3700000000003606 -0.5 0  -0.3600000000003883 -0.5 0  -0.3500000000004161 -0.5 0  -0.3400000000004438 -0.5 0  -0.3300000000004716 -0.5 0  -0.3200000000004993 -0.5 0  -0.3100000000005271 -0.5 0  -0.3000000000005548 -0.5 0  -0.2900000000005825 -0.5 0  -0.2800000000006103 -0.5 0  -0.2700000000006381 -0.5 0  -0.2600000000006658 -0.5 0  -0.2500000000006935 -0.5 0  -0.2400000000007212 -0.5 0  -0.230000000000749 -0.5 0  -0.2200000000007767 -0.5 0  -0.2100000000008044 -0.5 0  -0.2000000000008322 -0.5 0  -0.19000000000086 -0.5 0  -0.1800000000008877 -0.5 0  -0.1700000000009154 -0.5 0  -0.1600000000009431 -0.5 0  -0.1500000000009709 -0.5 0  -0.1400000000009986 -0.5 0  -0.1300000000010264 -0.5 0  -0.1200000000010541 -0.5 0  -0.1100000000010818 -0.5 0  -0.1000000000011096 -0.5 0  -0.09000000000113734 -0.5 0  -0.08000000000116503 -0.5 0  -0.07000000000119283 -0.5 0  -0.06000000000122058 -0.5 0  -0.05000000000124827 -0.5 0  -0.04000000000127607 -0.5 0  -0.03000000000130376 -0.5 0  -0.02000000000133151 -0.5 0  -0.01000000000135925 -0.5 0  -1.376121439022882e-12 -0.5 0  0.009999999998640763 -0.5 0  0.01999999999866864 -0.5 0  0.02999999999869629 -0.5 0  0.03999999999872406 -0.5 0  0.04999999999875182 -0.5 0  0.05999999999877947 -0.5 0  0.06999999999880724 -0.5 0  0.079999999998835 -0.5 0  0.08999999999886266 -0.5 0  0.09999999999889042 -0.5 0  0.1099999999989182 -0.5 0  0.1199999999989459 -0.5 0  0.1299999999989737 -0.5 0  0.1399999999990014 -0.5 0  0.1499999999990291 -0.5 0  0.1599999999990568 -0.5 0  0.1699999999990847 -0.5 0  0.1799999999991124 -0.5 0  0.1899999999991401 -0.5 0  0.1999999999991678 -0.5 0  0.2099999999991955 -0.5 0  0.2199999999992234 -0.5 0  0.2299999999992511 -0.5 0  0.2399999999992788 -0.5 0  0.2499999999993066 -0.5 0  0.2599999999993342 -0.5 0  0.269999999999362 -0.5 0  0.2799999999993897 -0.5 0  0.2899999999994175 -0.5 0  0.2999999999994452 -0.5 0  0.3099999999994729 -0.5 0  0.3199999999995007 -0.5 0  0.3299999999995284 -0.5 0  0.3399999999995562 -0.5 0  0.3499999999995839 -0.5 0  0.3599999999996116 -0.5 0  0.3699999999996393 -0.5 0  0.379999999999667 -0.5 0  0.3899999999996949 -0.5 0  0.3999999999997226 -0.5 0  0.4099999999997503 -0.5 0  0.419999999999778 -0.5 0  0.4299999999998058 -0.5 0  0.4399999999998336 -0.5 0  0.4499999999998613 -0.5 0  0.4599999999998891 -0.5 0  0.4699999999999167 -0.5 0  0.4799999999999445 -0.5 0  0.4899999999999722 -0.5 0  0.5 -0.4902110204681464 0  0.5 -0.4804459958734807 0  0.5 -0.4707048677450883 0  0.5 -0.4609875815766065 0  0.5 -0.4512940759251849 0  0.5 -0.4416242912883993 0  0.5 -0.4319781678689807 0  0.5 -0.4223556545383647 0  0.5 -0.4127566896324213 0  0.5 -0.4031812128200121 0  0.5 -0.3936291733057916 0  0.5 -0.3841005081172659 0  0.5 -0.3745951585781932 0  0.5 -0.3651130778999337 0  0.5 -0.3556541993788045 0  0.5 -0.3462184677228392 0  0.5 -0.3368058273705318 0  0.5 -0.3274162224888609 0  0.5 -0.3180495969712945 0  0.5 -0.3087058944357755 0  0.5 -0.299385058222682 0  0.5 -0.2900870313927414 0  0.5 -0.2808117567250807 0  0.5 -0.2715591844628491 0  0.5 -0.2623292564012653 0  0.5 -0.253121909553727 0  0.5 -0.2439371050851549 0  0.5 -0.2347747685524501 0  0.5 -0.2256348634421331 0  0.5 -0.2165173209784076 0  0.5 -0.207422087829958 0  0.5 -0.1983491207029381 0  0.5 -0.1892983550950482 0  0.5 -0.1802697378305253 0  0.5 -0.1712632154965152 0  0.5 -0.1622787344187354 0  0.5 -0.1533162406595534 0  0.5 -0.1443756800160514 0  0.5 -0.1354569980180493 0  0.5 -0.1265601399261414 0  0.5 -0.1176850622761093 0  0.5 -0.1088317009011999 0  0.5 -0.09166666666668973 0  0.5 -0.08333333333337943 0  0.5 -0.07500000000006915 0  0.5 -0.06666666666675886 0  0.5 -0.05833333333344858 0  0.5 -0.05000000000013693 0  0.5 -0.04166666666678191 0  0.5 -0.03333333333342643 0  0.5 -0.02500000000006916 0  0.5 -0.01666666666671188 0  0.5 -0.00833333333335548 0  0.5 0.008333333333318314 0  0.5 0.01666666666663358 0  0.5 0.02499999999994162 0  0.5 0.03333333333325101 0  0.5 0.04166666666655769 0  0.5 0.04999999999986843 0  0.5 0.05833333333322258 0  0.5 0.06666666666657715 0  0.5 0.07499999999993352 0  0.5 0.08333333333328992 0  0.5 0.09166666666664541 0  0.5 0.1088317009011616 0  0.5 0.1176850622760307 0  0.5 0.1265601399260203 0  0.5 0.1354569980178909 0  0.5 0.1443756800158549 0  0.5 0.153316240659315 0  0.5 0.1622787344184454 0  0.5 0.1712632154961752 0  0.5 0.1802697378301332 0  0.5 0.1892983550946039 0  0.5 0.1983491207024433 0  0.5 0.2074220878294123 0  0.5 0.216517320977811 0  0.5 0.2256348634414833 0  0.5 0.2347747685517479 0  0.5 0.2439371050844009 0  0.5 0.2531219095529224 0  0.5 0.2623292564004089 0  0.5 0.2715591844619371 0  0.5 0.2808117567241139 0  0.5 0.290087031391723 0  0.5 0.2993850582216101 0  0.5 0.3087058944347426 0  0.5 0.3180495969703129 0  0.5 0.3274162224879299 0  0.5 0.3368058273696494 0  0.5 0.3462184677220051 0  0.5 0.3556541993780186 0  0.5 0.3651130778991989 0  0.5 0.3745951585775107 0  0.5 0.3841005081166359 0  0.5 0.3936291733052134 0  0.5 0.4031812128194852 0  0.5 0.412756689631945 0  0.5 0.4223556545379392 0  0.5 0.431978167868607 0  0.5 0.4416242912880781 0  0.5 0.4512940759249164 0  0.5 0.4609875815763912 0  0.5 0.4707048677449264 0  0.5 0.4804459958733726 0  0.5 0.4902110204680924 0  0.4900000000000277 0.5 0  0.4800000000000555 0.5 0  0.4700000000000832 0.5 0  0.4600000000001109 0.5 0  0.4500000000001387 0.5 0  0.4400000000001664 0.5 0  0.4300000000001942 0.5 0  0.4200000000002219 0.5 0  0.4100000000002497 0.5 0  0.4000000000002774 0.5 0  0.3900000000003052 0.5 0  0.3800000000003328 0.5 0  0.3700000000003606 0.5 0  0.3600000000003883 0.5 0  0.3500000000004161 0.5 0  0.3400000000004438 0.5 0  0.3300000000004716 0.5 0  0.3200000000004993 0.5 0  0.3100000000005271 0.5 0  0.3000000000005548 0.5 0  0.2900000000005825 0.5 0  0.2800000000006103 0.5 0  0.2700000000006381 0.5 0  0.2600000000006658 0.5 0  0.2500000000006935 0.5 0  0.2400000000007212 0.5 0  0.230000000000749 0.5 0  0.2200000000007767 0.5 0  0.2100000000008044 0.5 0  0.2000000000008322 0.5 0  0.19000000000086 0.5 0  0.1800000000008877 0.5 0  0.1700000000009154 0.5 0  0.1600000000009431 0.5 0  0.1500000000009709 0.5 0  0.1400000000009986 0.5 0  0.1300000000010264 0.5 0  0.1200000000010541 0.5 0  0.1100000000010818 0.5 0  0.1000000000011096 0.5 0  0.09000000000113734 0.5 0  0.08000000000116503 0.5 0  0.07000000000119283 0.5 0  0.06000000000122058 0.5 0  0.05000000000124827 0.5 0  0.04000000000127607 0.5 0  0.03000000000130376 0.5 0  0.02000000000133151 0.5 0  0.01000000000135925 0.5 0  1.376121439022882e-12 0.5 0  -0.009999999998640763 0.5 0  -0.01999999999866864 0.5 0  -0.02999999999869629 0.5 0  -0.03999999999872406 0.5 0  -0.04999999999875182 0.5 0  -0.05999999999877947 0.5 0  -0.06999999999880724 0.5 0  -0.079999999998835 0.5 0  -0.08999999999886266 0.5 0  -0.09999999999889042 0.5 0  -0.1099999999989182 0.5 0  -0.1199999999989459 0.5 0  -0.1299999999989737 0.5 0  -0.1399999999990014 0.5 0  -0.1499999999990291 0.5 0  -0.1599999999990568 0.5 0  -0.1699999999990847 0.5 0  -0.1799999999991124 0.5 0  -0.1899999999991401 0.5 0  -0.1999999999991678 0.5 0  -0.2099999999991955 0.5 0  -0.2199999999992234 0.5 0  -0.2299999999992511 0.5 0  -0.2399999999992788 0.5 0  -0.2499999999993066 0.5 0  -0.2599999999993342 0.5 0  -0.269999999999362 0.5 0  -0.2799999999993897 0.5 0  -0.2899999999994175 0.5 0  -0.2999999999994452 0.5 0  -0.3099999999994729 0.5 0  -0.3199999999995007 0.5 0  -0.3299999999995284 0.5 0  -0.3399999999995562 0.5 0  -0.3499999999995839 0.5 0  -0.3599999999996116 0.5 0  -0.3699999999996393 0.5 0  -0.379999999999667 0.5 0  -0.3899999999996949 0.5 0  -0.3999999999997226 0.5 0  -0.4099999999997503 0.5 0  -0.419999999999778 0.5 0  -0.4299999999998058 0.5 0  -0.4399999999998336 0.5 0  -0.4499999999998613 0.5 0  -0.4599999999998891 0.5 0  -0.4699999999999167 0.5 0  -0.4799999999999445 0.5 0  -0.4899999999999722 0.5 0  -0.5 0.4902110204681464 0  -0.5 0.4804459958734807 0  -0.5 0.4707048677450883 0  -0.5 0.4609875815766065 0  -0.5 0.4512940759251849 0  -0.5 0.4416242912883993 0  -0.5 0.4319781678689807 0  -0.5 0.4223556545383647 0  -0.5 0.4127566896324213 0  -0.5 0.4031812128200121 0  -0.5 0.3936291733057916 0  -0.5 0.3841005081172659 0  -0.5 0.3745951585781932 0  -0.5 0.3651130778999337 0  -0.5 0.3556541993788045 0  -0.5 0.3462184677228392 0  -0.5 0.3368058273705318 0  -0.5 0.3274162224888609 0  -0.5 0.3180495969712945 0  -0.5 0.3087058944357755 0  -0.5 0.299385058222682 0  -0.5 0.2900870313927414 0  -0.5 0.2808117567250807 0  -0.5 0.2715591844628491 0  -0.5 0.2623292564012653 0  -0.5 0.253121909553727 0  -0.5 0.2439371050851549 0  -0.5 0.2347747685524501 0  -0.5 0.2256348634421331 0  -0.5 0.2165173209784076 0  -0.5 0.207422087829958 0  -0.5 0.1983491207029381 0  -0.5 0.1892983550950482 0  -0.5 0.1802697378305253 0  -0.5 0.1712632154965152 0  -0.5 0.1622787344187354 0  -0.5 0.1533162406595534 0  -0.5 0.1443756800160514 0  -0.5 0.1354569980180493 0  -0.5 0.1265601399261414 0  -0.5 0.1176850622761093 0  -0.5 0.1088317009011999 0  -0.5 0.09167500000001694 0  -0.5 0.08335000000003931 0  -0.5 0.07502500000006167 0  -0.5 0.06670000000008947 0  -0.5 0.05837500000011001 0  -0.5 0.0500500000001328 0  -0.5 0.0417250000001127 0  -0.5 0.03340000000008944 0  -0.5 0.02507500000006573 0  -0.5 0.01675000000004653 0  -0.5 0.008425000000027341 
[...]
<PointData  Scalars="f_25"> 
<DataArray  type="Float64"  Name="f_25"  format="ascii">1.0000000000000000e+00  1.4274305573025743e-04  1.1715330540517090e-01  2.0245544066391261e-02  4.2170776236599580e-02  7.9383546538148021e-04  1.0000000000000000e+00  1.0000000000000000e+00  2.3001717568874092e-02  2.1284017029621485e-02  1.2045869655686789e-03  1.2008989643934628e-03  1.4021619897062345e-04  1.5718699269052228e-04  1.8990646045936971e-04  2.2892035131617146e-04  2.6834484814170005e-04  3.0737289048087587e-04  3.4531618619070665e-04  3.8454110469708452e-04  4.2243780207092862e-04  4.6156287630818118e-04  5.0235201182992275e-04  5.4776539032482647e-04  5.9539555027439796e-04  6.4637869285091203e-04  7.0206842356298484e-04  7.6368002104401699e-04  8.3455267100584053e-04  9.1024806502126756e-04  9.9421475919857379e-04  1.0881604857373626e-03  1.1875802598926572e-03  1.2963068437723297e-03  1.4180572604295906e-03  1.5449131454862805e-03  1.6842346995958317e-03  1.8343775834706955e-03  1.9955945981839493e-03  2.1725388250216368e-03  2.3558806786717493e-03  2.5573778757366100e-03  2.7685413847296776e-03  2.9935525339139378e-03  3.2315669287195209e-03  3.4857557869434294e-03  3.7531783364448193e-03  4.0328206004253972e-03  4.3271186846767203e-03  4.6367077662897507e-03  4.9596749070530358e-03  5.2933821075131860e-03  5.6431142092953262e-03  6.0069158097191709e-03  6.3783947049832288e-03  6.7660340687524393e-03  7.1625857491048424e-03  7.5754491088882159e-03  7.9936452096138391e-03  8.4207598611172624e-03  8.8605055862738744e-03  9.3057278878706066e-03  9.7599855243023122e-03  1.0219949160680987e-02  1.0690100111974221e-02  1.1168554891214219e-02  1.1641358161422921e-02  1.2119165351748890e-02  1.2605272870580542e-02  1.3096576713897388e-02  1.3588177843257566e-02  1.4077396023469652e-02  1.4578979949961610e-02  1.5087416693093065e-02  1.5582034875867087e-02  1.6086077723191469e-02  1.6597740251336115e-02  1.7097602224817810e-02  1.7615354941520722e-02  1.8124352845714616e-02  1.8639780852541133e-02  1.9166896440176398e-02  1.9701459674065662e-02  2.0244023909219925e-02  2.0796832158087756e-02  2.1349076329259708e-02  2.1922010411133060e-02  2.2517942825246728e-02  2.3123613591913051e-02  2.3761574069633799e-02  2.4439386996156075e-02  2.5142268347279180e-02  2.5902439507196902e-02  2.6700324693435959e-02  2.7556673162135569e-02  2.8493542249996812e-02  2.9531527833156487e-02  3.0669035474558463e-02  3.1945437923455541e-02  3.3419055347440531e-02  3.5084216716659913e-02  3.7047429822435807e-02  3.9361900359211770e-02  4.2223614773308452e-02  4.5663256190580523e-02  5.0070380911315902e-02  5.5811364357016613e-02  6.3374649233580396e-02  7.3350925513820289e-02  8.6356411477636633e-02  1.0302766134999852e-01  1.0760326373627480e-01  9.0620133477685272e-02  7.7021032257260272e-02  6.6391049739491087e-02  5.8719711862223307e-02  5.3046549832058344e-02  4.8825576407787841e-02  4.5568477774196689e-02  4.2990842445016018e-02  4.0928451916180164e-02  3.9200622235729489e-02  3.7771216941284463e-02  3.6540550119325936e-02  3.5503131648052334e-02  3.4568082409544149e-02  3.3723654242865421e-02  3.2988304410098014e-02  3.2296285956468780e-02  3.1639215594219117e-02  3.1041807286292189e-02  3.0442048113428741e-02  2.9899974420242819e-02  2.9356572811386577e-02  2.8828807467718362e-02  2.8319275986707262e-02  2.7829486616362250e-02  2.7359207363130578e-02  2.6884767845480037e-02  2.6435745675650900e-02  2.5971645919899533e-02  2.5524053451310123e-02  2.5087574165830767e-02  2.4667402886154665e-02  2.4266012474651998e-02  2.3862828318666568e-02  2.3486276536576374e-02  2.3116244827753533e-02  2.2763773935335924e-02  2.2428729357314318e-02  2.2097903104787032e-02  2.1820827597243846e-02  2.1549673727492273e-02  2.1075053078246034e-02  2.0879913512124603e-02  2.0704781124537278e-02  2.0563287465511729e-02  2.0431536644391415e-02  2.0324551801321381e-02  2.0254827264173266e-02  2.0201498030385536e-02  2.0157764718317404e-02  2.0176289609706511e-02  2.0206717395150117e-02  2.0342612161374136e-02  2.0447492965143824e-02  2.0579397386286655e-02  2.0749590864741353e-02  2.0936788194384024e-02  2.1157453256556165e-02  2.1408894508677771e-02  2.1679651801691849e-02  2.1961148511208790e-02  2.2293880752615767e-02  2.2639117986253274e-02  2.3430985658228199e-02  2.3870714834314636e-02  2.4322455939419788e-02  2.4821534122575088e-02  2.5334428139513820e-02  2.5863288821173763e-02  2.6414251784347025e-02  2.6975146157186106e-02  2.7556817286225988e-02  2.8138884689704574e-02  2.8740573214420039e-02  2.9352211724081714e-02  2.9976447587078219e-02  3.0605997978346414e-02  3.1227936658996234e-02  3.1841782422903551e-02  3.2451014322634572e-02  3.3064066401709093e-02  3.3678870785421991e-02  3.4289442679336625e-02  3.4884804152052529e-02  3.5463916355079061e-02  3.6026162169211187e-02  3.6579348330729296e-02  3.7102878238417791e-02  3.7610818984157718e-02  3.8107310436590804e-02  3.8561171318375609e-02  3.9003684835754900e-02  3.9422196321941251e-02  3.9821713219180904e-02  4.0185450665951417e-02  4.0521437606607445e-02  4.0828360253777195e-02  4.1104955610574409e-02  4.1353678954438595e-02  4.1565047022596578e-02  4.1753822867923458e-02  4.1903955964221862e-02  4.2037616581225325e-02  4.2098199691851981e-02  4.2154883348716685e-02  4.1931697765326160e-02  4.1452289924619461e-02  4.0873683831824825e-02  4.0272055527256219e-02  3.9681144378396767e-02  3.9124015984527485e-02  3.8612893249453148e-02  3.8145040797593441e-02  3.7709184615241344e-02  3.7306378471846563e-02  3.6936878963863683e-02  3.6597101569160510e-02  3.6272793446059416e-02  3.5969956642624715e-02  3.5678608010832606e-02  3.5393455379992542e-02  3.5116787522908262e-02  3.4843197766078741e-02  3.4566483757348040e-02  3.4278570718701426e-02  3.3986689260943927e-02  3.3678209243086461e-02  3.3355864558713290e-02  3.3009107546851324e-02  3.2643322118303834e-02  3.2255823673428739e-02  3.1836477156403087e-02  3.1391631299178852e-02  3.0905401368201853e-02  3.0396029736990196e-02  2.9850339677276464e-02  2.9271738212782988e-02  2.8653690538358284e-02  2.8001060589926043e-02  2.7315313150704155e-02  2.6596518341228753e-02  2.5846302929096000e-02  2.5066368655740402e-02  2.4254796503592677e-02  2.3402733254859073e-02  2.2538374506498211e-02  2.1652558291011707e-02  2.0751518410382256e-02  1.9840023599638979e-02  1.8907775133637294e-02  1.7981795601485696e-02  1.7036078401540516e-02  1.6094359785690723e-02  1.5165016178349826e-02  1.4249064774492448e-02  1.3348568521506111e-02  1.2450067217016754e-02  1.1591130095110126e-02  1.0746328035934961e-02  9.9258082564702282e-03  9.1459888756088258e-03  8.3876874939482170e-03  7.6654559982801207e-03  6.9817089185454928e-03  6.3303011255043578e-03  5.7229386035135164e-03  5.1463674168810303e-03  4.6117926916454761e-03  4.1128235333404680e-03  3.6514728407851050e-03  3.2243381698754611e-03  2.8283642970275101e-03  2.4728710923949755e-03  2.1436189491388698e-03  1.8475712086837854e-03  1.5792646629214488e-03  1.3400572434566461e-03  1.1240596395632786e-03  9.3471684301634677e-04  7.6515112458002939e-04  6.1745296830113350e-04  4.9104757347132326e-04  3.8069316340240357e-04  2.8843561302659062e-04  2.1101105122069136e-04  1.4838602702768705e-04  1.0007795819614477e-04  6.4643112553324975e-05  4.1913948163121730e-05  3.0811556934969625e-05  3.0412577905436765e-05  4.0224514663127823e-05  5.9116536492415706e-05  8.6465044557109541e-05  1.2123236511430655e-04  1.6424079450130520e-04  2.1515362101902379e-04  2.7515677722755139e-04  3.4271763127516634e-04  4.2021208697764204e-04  5.0434039163584977e-04  5.9547901367619537e-04  6.8411777962667283e-04  7.5716675809521983e-04  7.9401949934942170e-04  7.9162050416290840e-04  7.9048830463709669e-04  7.8195942192768326e-04  7.7568403957518938e-04  7.6752213350019915e-04  7.5704407873176211e-04  7.4639829616973392e-04  7.3252943288041868e-04  7.1899724797914522e-04  7.0385276475673812e-04  6.8730892381996581e-04  6.6885814098304104e-04  6.4903854837634726e-04  6.2826898734125332e-04  6.0627518212994825e-04  5.8320172053559212e-04  5.5858017955155584e-04  5.3276392752733522e-04  5.0647576852618512e-04  4.7961516976700533e-04  4.5138248893071786e-04  4.2301271864727565e-04  3.9445942441142180e-04  3.6538187629837654e-04  3.3674966537476056e-04  3.0957566691109485e-04  2.8185313071834445e-04  2.5469414443288999e-04  2.2846673444689228e-04  2.0288694720718153e-04  1.7966669647285580e-04  1.5847045092728455e-04  1.3925870650833400e-04  1.2379508540746108e-04  1.1458282050460803e-04  1.1316804838097418e-04  1.2550261393339313e-04  1.6146949384256189e-04  2.3791914790679148e-04  3.9307954767164708e-04  6.8056215911075745e-04  2.1109348765455953e-03  3.6951119257242300e-03  6.4939598045414141e-03  1.1262576794621318e-02  1.9741425960670713e-02  3.4723882898625914e-02  6.0784111054857586e-02  1.0622304416499208e-01  1.8493093008025743e-01  3.2702570348155435e-01  5.7160168165920089e-01  1.0000000000000000e+00  1.0000000000000000e+00  1.0000000000000000e+00  1.0000000000000000e+00  1.0000000000000000e+00  1.0000000000000000e+00  1.0000000000000000e+00  1.0000000000000000e+00  1.0000000000000000e+00  1.0000000000000000e+00  1.0000000000000000e+00  1.0000000000000000e+00  1.0000000000000000e+00  1.0000000000000000e+00  1.0000000000000000e+00  1.0000000000000000e+00  1.0000000000000000e+00  1.0000000000000000e+00  1.0000000000000000e+00  1.0000000000000000e+00  1.0000000000000000e+00  9.9999999999999989e-01  9.9999999999999989e-01  1.0000000000000000e+00  1.0000000000000000e+00  1.0000000000000000e+00  1.0000000000000000e+00  1.0000000000000000e+00  1.0000000000000000e+00  1.0000000000000000e+00  1.0000000000000000e+00  1.0000000000000000e+00  1.0000000000000000e+00  1.0000000000000000e+00  1.0000000000000000e+00  1.0000000000000000e+00  1.0000000000000000e+00  1.0000000000000000e+00  1.0000000000000000e+00  1.0000000000000000e+00  1.0000000000000000e+00  1.0000000000000000e+00  1.0000000000000000e+00  1.0000000000000000e+00  1.0000000000000000e+00  1.0000000000000000e+00  1.0000000000000000e+00  1.0000000000000000e+00  1.0000000000000000e+00  1.0000000000000000e+00  1.0000000000000000e+00  1.0000000000000000e+00  1.0000000000000000e+00  1.0000000000000000e+00  1.0000000000000000e+00  1.0000000000000000e+00  1.0000000000000000e+00  1.0000000000000000e+00  1.0000000000000000e+00  1.0000000000000000e+00  1.0000000000000000e+00  1.0000000000000000e+00  1.0000000000000000e+00  1.0000000000000000e+00  1.0000000000000000e+00  1.0000000000000000e+00  1.0000000000000000e+00  1.0000000000000000e+00  1.0000000000000000e+00  1.0000000000000000e+00  1.0000000000000000e+00  9.9999999999999989e-01  1.0000000000000000e+00  1.0000000000000000e+00  1.0000000000000000e+00  1.0000000000000000e+00  1.0000000000000000e+00  1.0000000000000000e+00  1.0000000000000000e+00  1.0000000000000000e+00  1.0000000000000000e+00  1.0000000000000000e+00  1.0000000000000000e+00  1.0000000000000000e+00  1.0000000000000000e+00  1.0000000000000000e+00  1.0000000000000000e+00  1.0000000000000000e+00  1.0000000000000000e+00  1.0000000000000000e+00  1.0000000000000000e+00  1.0000000000000000e+00  1.0000000000000000e+00  1.0000000000000000e+00  1.0000000000000000e+00  1.0000000000000000e+00  1.0000000000000000e+00  1.0000000000000000e+00  1.0000000000000000e+00  1.0000000000000000e+00  1.0000000000000000e+00  1.0000000000000000e+00  1.0000000000000000e+00  1.0000000000000000e+00  1.0000000000000000e+00  1.0000000000000000e+00  1.0000000000000000e+00  9.9999999999999989e-01  1.0000000000000000e+00  1.0000000000000000e+00  5.7157112458150650e-01  3.2704090254837870e-01  1.8489422792605928e-01  1.0624094148822570e-01  6.0791733397913654e-02  3.4729803035027929e-02  1.9749661546988661e-02  1.1265457402032787e-02  6.4991736959782052e-03  3.6990048358562992e-03  2.1146748051070045e-03  6.8480782751317556e-04  3.9793399130393943e-04  2.4312622394444028e-04  1.6789959756861923e-04  1.3265349590156091e-04  1.2078558426724288e-04  1.2236588073560428e-04  1.3144711257418904e-04  1.4607263182512436e-04  1.6390547579505233e-04  1.8315995884650573e-04  2.0305424955299975e-04  2.2436637875695810e-04  2.4512591015438481e-04  2.6523638235646021e-04  2.8474250009174432e-04  3.0172539937559621e-04  3.1826234798106696e-04  3.3288940623022530e-04  3.4509719539583774e-04  3.5514442870131696e-04  3.6245123255727456e-04  3.6648844458656547e-04  3.6706310223100799e-04  3.6460098006432258e-04  3.5907161544174691e-04  3.5026982705462666e-04  3.3760485264818890e-04  3.2175403810273310e-04  3.0375608415583310e-04  2.8270878541843440e-04  2.5958103119762824e-04  2.3483047902131019e-04  2.0876148938608012e-04  1.8306927035875028e-04  1.6002067183788050e-04  1.3815850250467875e-04  1.1948027474597056e-04  1.0728239424818703e-04  1.0213852781462917e-04  1.1355408147308546e-04  1.3074401012370520e-04  1.2000167644601722e-03  1.2081045916312765e-03  1.2150869639224137e-03  1.2196687139419775e-03  1.2241322873001185e-03  1.2498672203196455e-03  1.2587054017239429e-03  1.2551627308364725e-03  1.2813739460854308e-03  1.3084056840952556e-03  1.3006567896416351e-03  1.3294469219679557e-03  1.3545464659895506e-03  1.3678495678922592e-03  1.3803253909963390e-03  1.3840687082819739e-03  1.3946827862207881e-03  1.3951213568862049e-03  1.4235785562325474e-03  1.4354631927607189e-03  1.4313435495810175e-03  1.4358508353828289e-03  1.4528530881548654e-03  1.4534364628784233e-03  1.4397958212570235e-03  1.4385758960846558e-03  1.4336806268232833e-03  1.4195146321369541e-03  1.4216977472922337e-03  1.4037442928142164e-03  1.3839791082984150e-03  1.3774003182407226e-03  1.3683972216651302e-03  1.3507896357758222e-03  1.3617363752269458e-03  1.3902742125986454e-03  1.3870061426572208e-03  1.4508771452376307e-03  1.5301638300291743e-03  1.6343051557133862e-03  1.8386047646154653e-03  2.0918328908694360e-03  2.4371312581520691e-03  2.9430861652850865e-03  3.6056674037017919e-03  4.5046061560278083e-03  5.7041570811953088e-03  7.2392935512105372e-03  9.1738645445799075e-03  1.1599045123369952e-02  1.4563759092730375e-02  1.8100700230161398e-02  2.2225160141343746e-02  2.6684743942371383e-02  3.1443028629822192e-02  3.6343343968175214e-02  4.1025431969266397e-02  4.5217879744691242e-02  4.8806189059765998e-02  5.1530215199190758e-02  5.3350172071777668e-02  5.4342556033213918e-02  5.4574947520485070e-02  5.4189179775508321e-02  5.3322056080761029e-02  5.2108009558811494e-02  5.0707386614833809e-02  4.9170940081358146e-02  4.7600971061876850e-02  4.6024258199094774e-02  4.4539744804361438e-02  4.3120700568528431e-02  4.1794628217496951e-02  4.0570012650527044e-02  3.9452936384834762e-02  3.8428786109126381e-02  3.7494417439397389e-02  3.6660789032647245e-02  3.5906819399705941e-02  3.5226659226715411e-02  3.4605448336662688e-02  3.4039155608998374e-02  3.3526656354063621e-02  3.3058352193328505e-02  3.2619716087597825e-02  3.2222883774161430e-02  3.1852173722697309e-02  3.1509666844825993e-02  3.1183819154648275e-02  3.0867119069708352e-02  3.0569279808771273e-02  3.0280485984283331e-02  2.9989750476867794e-02  2.9699645817106532e-02  2.9405213247161600e-02  2.9111388689972977e-02  2.8810693443800574e-02  2.8497114499715925e-02  2.8171261628510757e-02  2.7829298907674292e-02  2.7471848761316635e-02  2.7096169573839701e-02  2.6703347106363587e-02  2.6287535551736338e-02  2.5848465620793560e-02  2.5392642925012251e-02  2.4915623026144734e-02  2.4432109666378540e-02  2.3952747004267007e-02  2.3510144487509384e-02  2.3162605910052880e-02  1.2037805598921301e-03  1.2116122924851612e-03  1.2187400072875177e-03  1.2233924289929738e-03  1.2279353811670008e-03  1.2540027872184510e-03  1.2621360611734900e-03  1.2582808859719194e-03  1.2831325654247370e-03  1.3086295389965919e-03  1.3017505778056561e-03  1.3265055938111400e-03  1.3498395487141694e-03  1.3611060645601202e-03  1.3715381072009892e-03  1.3739306965047185e-03  1.3814782086169531e-03  1.3779289909651115e-03  1.4061242287839934e-03  1.4206081566135529e-03  1.4157649943419674e-03  1.4205373212659782e-03  1.4343921621841878e-03  1.4346246495557694e-03  1.4197466386683373e-03  1.4182225164840515e-03  1.4140356474342229e-03  1.4002578309671363e-03  1.4021251148651247e-03  1.3850603704513209e-03  1.3651178997759032e-03  1.3573284343117286e-03  1.3465162108174638e-03  1.3276812613201210e-03  1.3363897183505404e-03  1.3618809435087581e-03  1.3522487870070874e-03  1.4077172301467000e-03  1.4740294673337082e-03  1.5618793589184726e-03  1.7455756176033741e-03  1.9690428190900209e-03  2.2781914401004350e-03  2.7387102651639872e-03  3.3412325561292212e-03  4.1663707533739621e-03  5.2759854433120194e-03  6.7042373535447465e-03  8.5151744239145965e-03  1.0802918823138045e-02  1.3618665005096854e-02  1.7002839878602488e-02  2.0972896073452357e-02  2.5302014424436744e-02  2.9959633205851249e-02  3.4797277866559694e-02  3.9471038044308029e-02  4.3724751457499926e-02  4.7422785379878388e-02  5.0313168579306948e-02  5.2340679701741923e-02  5.3557561750666213e-02  5.4025346119195648e-02  5.3872224886221454e-02  5.3211375830769972e-02  5.2187815864874941e-02  5.0953734767309071e-02  4.9555587309090154e-02  4.8097919443999083e-02  4.6606082412437348e-02  4.5193054465473191e-02  4.3828940512952226e-02  4.2534946916499630e-02  4.1335600524573107e-02  4.0233943029791150e-02  3.9216523164023818e-02  3.8281212323511664e-02  3.7440139113470168e-02  3.6673752807873744e-02  3.5978594299638407e-02  3.5338281414684876e-02  3.4747983274376885e-02  3.4209481694331863e-02  3.3710640508044155e-02  3.3239777565825357e-02  3.2805514644195954e-02  3.2393991546757178e-02  3.2008280157245432e-02  3.1635059903052411e-02  3.1265474371663202e-02  3.0910813451733188e-02  3.0560182336681362e-02  3.0202095726522389e-02  2.9840526272874777e-02  2.9467869888546369e-02  2.9091056708745469e-02  2.8702660469831838e-02  2.8294591090993585e-02  2.7869246729520337e-02  2.7421448558391005e-02  2.6952715395780730e-02  2.6462281858796510e-02  2.5949569191021749e-02  2.5411507632749086e-02  2.4847781374784831e-02  2.4264607478722919e-02  2.3661662962765492e-02  2.3052675331321971e-02  2.2453209108635623e-02  2.1906931968092697e-02  2.1478259800237504e-02  6.3346892153142942e-01  4.2802839761228184e-01  2.9220218679086762e-01  2.0913433597212305e-01  1.5520017487423624e-01  1.1901028910958411e-01  9.4574046744833010e-02  7.8123289441220406e-02  6.6352955860255733e-02  5.8007649699138561e-02  5.1837884392109221e-02  4.7127409683869352e-02  4.3559420045016874e-02  4.0775218189574927e-02  3.8575928180755406e-02  3.6801376929320215e-02  3.5379736910634584e-02  3.4211664165091651e-02  3.3241461974872086e-02  3.2447201302683554e-02  3.1780602208323537e-02  3.1210715817535491e-02  3.0737665979782308e-02  3.0330802396047078e-02  2.9983127735784043e-02  2.9688102054798042e-02  2.9416840138639464e-02  2.9188834145959981e-02  2.8977000887387593e-02  2.8781084366635460e-02  2.8605734376428507e-02  2.8442525579457586e-02  2.8277942687839890e-02  2.8108986786091809e-02  2.7937390997284272e-02  2.7755174553260525e-02  2.7571025797637996e-02  2.7370272014087472e-02  2.7154498793412866e-02  2.6922665099747063e-02  2.6670875563982798e-02  2.6397508566510627e-02  2.6096450552491091e-02  2.5770407765333490e-02  2.5409360595934277e-02  2.5019390844589456e-02  2.4599185552737966e-02  2.4140044219110021e-02  2.3650411177686806e-02  2.3122020044813146e-02  2.2564792430497273e-02  2.1989954089137009e-02  2.1411717678000038e-02  2.0877707400508538e-02  2.0440619337066975e-02  7.1544453475222303e-03  1.7274564929633057e-04  2.9691986482215722e-02  3.5349329658350540e-02  2.2164774578677913e-02  8.6774420417121947e-04  2.2306307677423255e-04  3.7333453787601674e-02  3.2573936114741991e-02  1.6569568932351352e-02  1.9211512427257517e-03  8.8545402925358389e-05  3.2219699161650676e-02  3.6086061838603481e-02  6.6584746591382155e-03  1.5388856373221195e-04  3.7892065709697130e-02  2.5740654027117584e-02  2.8067752417230491e-04  7.0996418651640284e-03  3.4540298032912996e