<?xml version="1.0"?>
<VTKFile type="UnstructuredGrid"  version="0.1"  >
<UnstructuredGrid>
<Piece  NumberOfPoints="15540" NumberOfCells="30546">
<Points>
<DataArray  type="Float64"  NumberOfComponents="3"  format="ascii">0 0 0  -0.5 -0.5 0  0.5 -0.5 0  0.5 0 0  0.5 0.5 0  -0.5 0.5 0  -0.5 0.0001 0  -0.5 -0.0001 0  0.5 0.1 0  0.5 -0.1 0  -0.5 -0.1 0  -0.5 0.1 0  -0.4900000000000277 -0.5 0  -0.4800000000000555 -0.5 0  -0.4700000000000832 -0.5 0  -0.4600000000001109 -0.5 0  -0.4500000000001387 -0.5 0  -0.4400000000001664 -0.5 0  -0.4300000000001942 -0.5 0  -0.4200000000002219 -0.5 0  -0.4100000000002497 -0.5 0  -0.4000000000002774 -0.5 0  -0.3900000000003052 -0.5 0  -0.3800000000003328 -0.5 0  -0.3700000000003606 -0.5 0  -0.3600000000003883 -0.5 0  -0.3500000000004161 -0.5 0  -0.3400000000004438 -0.5 0  -0.3300000000004716 -0.5 0  -0.3200000000004993 -0.5 0  -0.3100000000005271 -0.5 0  -0.3000000000005548 -0.5 0  -0.2900000000005825 -0.5 0  -0.2800000000006103 -0.5 0  -0.2700000000006381 -0.5 0  -0.2600000000006658 -0.5 0  -0.2500000000006935 -0.5 0  -0.2400000000007212 -0.5 0  -0.230000000000749 -0.5 0  -0.2200000000007767 -0.5 0  -0.2100000000008044 -0.5 0  -0.2000000000008322 -0.5 0  -0.19000000000086 -0.5 0  -0.1800000000008877 -0.5 0  -0.1700000000009154 -0.5 0  -0.1600000000009431 -0.5 0  -0.1500000000009709 -0.5 0  -0.1400000000009986 -0.5 0  -0.1300000000010264 -0.5 0  -0.1200000000010541 -0.5 0  -0.1100000000010818 -0.5 0  -0.1000000000011096 -0.5 0  -0.09000000000113734 -0.5 0  -0.08000000000116503 -0.5 0  -0.07000000000119283 -0.5 0  -0.06000000000122058 -0.5 0  -0.05000000000124827 -0.5 0  -0.04000000000127607 -0.5 0  -0.03000000000130376 -0.5 0  -0.02000000000133151 -0.5 0  -0.01000000000135925 -0.5 0  -1.376121439022882e-12 -0.5 0  0.009999999998640763 -0.5 0  0.01999999999866864 -0.5 0  0.02999999999869629 -0.5 0  0.03999999999872406 -0.5 0  0.04999999999875182 -0.5 0  0.05999999999877947 -0.5 0  0.06999999999880724 -0.5 0  0.079999999998835 -0.5 0  0.08999999999886266 -0.5 0  0.09999999999889042 -0.5 0  0.1099999999989182 -0.5 0  0.1199999999989459 -0.5 0  0.1299999999989737 -0.5 0  0.1399999999990014 -0.5 0  0.1499999999990291 -0.5 0  0.1599999999990568 -0.5 0  0.1699999999990847 -0.5 0  0.1799999999991124 -0.5 0  0.1899999999991401 -0.5 0  0.1999999999991678 -0.5 0  0.2099999999991955 -0.5 0  0.2199999999992234 -0.5 0  0.2299999999992511 -0.5 0  0.2399999999992788 -0.5 0  0.2499999999993066 -0.5 0  0.2599999999993342 -0.5 0  0.269999999999362 -0.5 0  0.2799999999993897 -0.5 0  0.2899999999994175 -0.5 0  0.2999999999994452 -0.5 0  0.3099999999994729 -0.5 0  0.3199999999995007 -0.5 0  0.3299999999995284 -0.5 0  0.3399999999995562 -0.5 0  0.3499999999995839 -0.5 0  0.3599999999996116 -0.5 0  0.3699999999996393 -0.5 0  0.379999999999667 -0.5 0  0.3899999999996949 -0.5 0  0.3999999999997226 -0.5 0  0.4099999999997503 -0.5 0  0.419999999999778 -0.5 0  0.4299999999998058 -0.5 0  0.4399999999998336 -0.5 0  0.4499999999998613 -0.5 0  0.4599999999998891 -0.5 0  0.4699999999999167 -0.5 0  0.4799999999999445 -0.5 0  0.4899999999999722 -0.5 0  0.5 -0.4902110204681464 0  0.5 -0.4804459958734807 0  0.5 -0.4707048677450883 0  0.5 -0.4609875815766065 0  0.5 -0.4512940759251849 0  0.5 -0.4416242912883993 0  0.5 -0.4319781678689807 0  0.5 -0.4223556545383647 0  0.5 -0.4127566896324213 0  0.5 -0.4031812128200121 0  0.5 -0.3936291733057916 0  0.5 -0.3841005081172659 0  0.5 -0.3745951585781932 0  0.5 -0.3651130778999337 0  0.5 -0.3556541993788045 0  0.5 -0.3462184677228392 0  0.5 -0.3368058273705318 0  0.5 -0.3274162224888609 0  0.5 -0.3180495969712945 0  0.5 -0.3087058944357755 0  0.5 -0.299385058222682 0  0.5 -0.2900870313927414 0  0.5 -0.2808117567250807 0  0.5 -0.2715591844628491 0  0.5 -0.2623292564012653 0  0.5 -0.253121909553727 0  0.5 -0.2439371050851549 0  0.5 -0.2347747685524501 0  0.5 -0.2256348634421331 0  0.5 -0.2165173209784076 0  0.5 -0.207422087829958 0  0.5 -0.1983491207029381 0  0.5 -0.1892983550950482 0  0.5 -0.1802697378305253 0  0.5 -0.1712632154965152 0  0.5 -0.1622787344187354 0  0.5 -0.1533162406595534 0  0.5 -0.1443756800160514 0  0.5 -0.1354569980180493 0  0.5 -0.1265601399261414 0  0.5 -0.1176850622761093 0  0.5 -0.1088317009011999 0  0.5 -0.09166666666668973 0  0.5 -0.08333333333337943 0  0.5 -0.07500000000006915 0  0.5 -0.06666666666675886 0  0.5 -0.05833333333344858 0  0.5 -0.05000000000013693 0  0.5 -0.04166666666678191 0  0.5 -0.03333333333342643 0  0.5 -0.02500000000006916 0  0.5 -0.01666666666671188 0  0.5 -0.00833333333335548 0  0.5 0.008333333333318314 0  0.5 0.01666666666663358 0  0.5 0.02499999999994162 0  0.5 0.03333333333325101 0  0.5 0.04166666666655769 0  0.5 0.04999999999986843 0  0.5 0.05833333333322258 0  0.5 0.06666666666657715 0  0.5 0.07499999999993352 0  0.5 0.08333333333328992 0  0.5 0.09166666666664541 0  0.5 0.1088317009011616 0  0.5 0.1176850622760307 0  0.5 0.1265601399260203 0  0.5 0.1354569980178909 0  0.5 0.1443756800158549 0  0.5 0.153316240659315 0  0.5 0.1622787344184454 0  0.5 0.1712632154961752 0  0.5 0.1802697378301332 0  0.5 0.1892983550946039 0  0.5 0.1983491207024433 0  0.5 0.2074220878294123 0  0.5 0.216517320977811 0  0.5 0.2256348634414833 0  0.5 0.2347747685517479 0  0.5 0.2439371050844009 0  0.5 0.2531219095529224 0  0.5 0.2623292564004089 0  0.5 0.2715591844619371 0  0.5 0.2808117567241139 0  0.5 0.290087031391723 0  0.5 0.2993850582216101 0  0.5 0.3087058944347426 0  0.5 0.3180495969703129 0  0.5 0.3274162224879299 0  0.5 0.3368058273696494 0  0.5 0.3462184677220051 0  0.5 0.3556541993780186 0  0.5 0.3651130778991989 0  0.5 0.3745951585775107 0  0.5 0.3841005081166359 0  0.5 0.3936291733052134 0  0.5 0.4031812128194852 0  0.5 0.412756689631945 0  0.5 0.4223556545379392 0  0.5 0.431978167868607 0  0.5 0.4416242912880781 0  0.5 0.4512940759249164 0  0.5 0.4609875815763912 0  0.5 0.4707048677449264 0  0.5 0.4804459958733726 0  0.5 0.4902110204680924 0  0.4900000000000277 0.5 0  0.4800000000000555 0.5 0  0.4700000000000832 0.5 0  0.4600000000001109 0.5 0  0.4500000000001387 0.5 0  0.4400000000001664 0.5 0  0.4300000000001942 0.5 0  0.4200000000002219 0.5 0  0.4100000000002497 0.5 0  0.4000000000002774 0.5 0  0.3900000000003052 0.5 0  0.3800000000003328 0.5 0  0.3700000000003606 0.5 0  0.3600000000003883 0.5 0  0.3500000000004161 0.5 0  0.3400000000004438 0.5 0  0.3300000000004716 0.5 0  0.3200000000004993 0.5 0  0.3100000000005271 0.5 0  0.3000000000005548 0.5 0  0.2900000000005825 0.5 0  0.2800000000006103 0.5 0  0.2700000000006381 0.5 0  0.2600000000006658 0.5 0  0.2500000000006935 0.5 0  0.2400000000007212 0.5 0  0.230000000000749 0.5 0  0.2200000000007767 0.5 0  0.2100000000008044 0.5 0  0.2000000000008322 0.5 0  0.19000000000086 0.5 0  0.1800000000008877 0.5 0  0.1700000000009154 0.5 0  0.1600000000009431 0.5 0  0.1500000000009709 0.5 0  0.1400000000009986 0.5 0  0.1300000000010264 0.5 0  0.1200000000010541 0.5 0  0.1100000000010818 0.5 0  0.1000000000011096 0.5 0  0.09000000000113734 0.5 0  0.08000000000116503 0.5 0  0.07000000000119283 0.5 0  0.06000000000122058 0.5 0  0.05000000000124827 0.5 0  0.04000000000127607 0.5 0  0.03000000000130376 0.5 0  0.02000000000133151 0.5 0  0.01000000000135925 0.5 0  1.376121439022882e-12 0.5 0  -0.009999999998640763 0.5 0  -0.01999999999866864 0.5 0  -0.02999999999869629 0.5 0  -0.03999999999872406 0.5 0  -0.04999999999875182 0.5 0  -0.05999999999877947 0.5 0  -0.06999999999880724 0.5 0  -0.079999999998835 0.5 0  -0.08999999999886266 0.5 0  -0.09999999999889042 0.5 0  -0.1099999999989182 0.5 0  -0.1199999999989459 0.5 0  -0.1299999999989737 0.5 0  -0.1399999999990014 0.5 0  -0.1499999999990291 0.5 0  -0.1599999999990568 0.5 0  -0.1699999999990847 0.5 0  -0.1799999999991124 0.5 0  -0.1899999999991401 0.5 0  -0.1999999999991678 0.5 0  -0.2099999999991955 0.5 0  -0.2199999999992234 0.5 0  -0.2299999999992511 0.5 0  -0.2399999999992788 0.5 0  -0.2499999999993066 0.5 0  -0.2599999999993342 0.5 0  -0.269999999999362 0.5 0  -0.2799999999993897 0.5 0  -0.2899999999994175 0.5 0  -0.2999999999994452 0.5 0  -0.3099999999994729 0.5 0  -0.3199999999995007 0.5 0  -0.3299999999995284 0.5 0  -0.3399999999995562 0.5 0  -0.3499999999995839 0.5 0  -0.3599999999996116 0.5 0  -0.3699999999996393 0.5 0  -0.379999999999667 0.5 0  -0.3899999999996949 0.5 0  -0.3999999999997226 0.5 0  -0.4099999999997503 0.5 0  -0.419999999999778 0.5 0  -0.4299999999998058 0.5 0  -0.4399999999998336 0.5 0  -0.4499999999998613 0.5 0  -0.4599999999998891 0.5 0  -0.4699999999999167 0.5 0  -0.4799999999999445 0.5 0  -0.4899999999999722 0.5 0  -0.5 0.4902110204681464 0  -0.5 0.4804459958734807 0  -0.5 0.4707048677450883 0  -0.5 0.4609875815766065 0  -0.5 0.4512940759251849 0  -0.5 0.4416242912883993 0  -0.5 0.4319781678689807 0  -0.5 0.4223556545383647 0  -0.5 0.4127566896324213 0  -0.5 0.4031812128200121 0  -0.5 0.3936291733057916 0  -0.5 0.3841005081172659 0  -0.5 0.3745951585781932 0  -0.5 0.3651130778999337 0  -0.5 0.3556541993788045 0  -0.5 0.3462184677228392 0  -0.5 0.3368058273705318 0  -0.5 0.3274162224888609 0  -0.5 0.3180495969712945 0  -0.5 0.3087058944357755 0  -0.5 0.299385058222682 0  -0.5 0.2900870313927414 0  -0.5 0.2808117567250807 0  -0.5 0.2715591844628491 0  -0.5 0.2623292564012653 0  -0.5 0.253121909553727 0  -0.5 0.2439371050851549 0  -0.5 0.2347747685524501 0  -0.5 0.2256348634421331 0  -0.5 0.2165173209784076 0  -0.5 0.207422087829958 0  -0.5 0.1983491207029381 0  -0.5 0.1892983550950482 0  -0.5 0.1802697378305253 0  -0.5 0.1712632154965152 0  -0.5 0.1622787344187354 0  -0.5 0.1533162406595534 0  -0.5 0.1443756800160514 0  -0.5 0.1354569980180493 0  -0.5 0.1265601399261414 0  -0.5 0.1176850622761093 0  -0.5 0.1088317009011999 0  -0.5 0.09167500000001694 0  -0.5 0.08335000000003931 0  -0.5 0.07502500000006167 0  -0.5 0.06670000000008947 0  -0.5 0.05837500000011001 0  -0.5 0.0500500000001328 0  -0.5 0.0417250000001127 0  -0.5 0.03340000000008944 0  -0.5 0.02507500000006573 0  -0.5 0.01675000000004653 0  -0.5 0.008425000000027341 
[...]
<PointData  Scalars="f_25"> 
<DataArray  type="Float64"  Name="f_25"  format="ascii">1.0000000000000000e+00  1.3375730056515889e-04  1.1291135936553413e-01  1.9469934813144282e-02  4.0615363938971083e-02  7.6378317626663982e-04  1.0000000000000000e+00  1.0000000000000000e+00  2.2125880474665519e-02  2.0481022995390466e-02  1.2036147845882251e-03  1.2000783623841377e-03  1.3212661542126309e-04  1.4908834921504796e-04  1.8070119362476896e-04  2.1812716623703117e-04  2.5583973674679861e-04  2.9312873381270936e-04  3.2936079684117356e-04  3.6680850950285954e-04  4.0298104869203956e-04  4.4031636237146660e-04  4.7923400768012876e-04  5.2257004575667089e-04  5.6803128842066396e-04  6.1670651518143599e-04  6.6989162241991166e-04  7.2875029611852197e-04  7.9647831075949375e-04  8.6883340722559012e-04  9.4911431902853572e-04  1.0389588104983926e-03  1.1340601203351588e-03  1.2380834172884790e-03  1.3545933257209453e-03  1.4760109286625750e-03  1.6093854964745859e-03  1.7531455131799191e-03  1.9075380646001643e-03  2.0770304868013801e-03  2.2526791000167293e-03  2.4457555741602961e-03  2.6481295212339587e-03  2.8638137439630533e-03  3.0920038923226744e-03  3.3357474631171445e-03  3.5922342321897424e-03  3.8604853022936852e-03  4.1428427362310482e-03  4.4399342698103446e-03  4.7499133947932924e-03  5.0702609891598747e-03  5.4060443589457391e-03  5.7554188034881527e-03  6.1122194001686572e-03  6.4846172273820947e-03  6.8656171836919298e-03  7.2623769601698083e-03  7.6642937381157265e-03  8.0748922185763673e-03  8.4977064474511740e-03  8.9258355525405966e-03  9.3627003417983690e-03  9.8051473431412343e-03  1.0257471191930035e-02  1.0717782723915792e-02  1.1172756215682374e-02  1.1632622618150755e-02  1.2100488859889950e-02  1.2573411993322419e-02  1.3046685185631242e-02  1.3517724219087233e-02  1.4000691127239796e-02  1.4490264432974766e-02  1.4966624922185636e-02  1.5452075339264924e-02  1.5944878528107772e-02  1.6426386389250872e-02  1.6925113584889604e-02  1.7415472768694588e-02  1.7912032795950064e-02  1.8419852327833355e-02  1.8934864002630857e-02  1.9457599954079204e-02  1.9990213150254697e-02  2.0522309148187194e-02  2.1074328955610695e-02  2.1648497264161758e-02  2.2232063935363887e-02  2.2846726174241216e-02  2.3499757066704784e-02  2.4176938874804405e-02  2.4909279700817338e-02  2.5677949973894252e-02  2.6502915772328939e-02  2.7405430164193223e-02  2.8405322861770645e-02  2.9501070378906112e-02  3.0730616926365039e-02  3.2150132347801536e-02  3.3754257823181276e-02  3.5645604007889527e-02  3.7875513196409118e-02  4.0633045406545866e-02  4.3948115292862105e-02  4.8196331389214551e-02  5.3731377259571451e-02  6.1025157258209728e-02  7.0648441307380044e-02  8.3196201756846888e-02  9.9282003415984449e-02  1.0369849197381913e-01  8.7317095635536454e-02  7.4202104586802833e-02  6.3952336982086383e-02  5.6557385445909769e-02  5.1090179615452938e-02  4.7023661953317357e-02  4.3886744003435681e-02  4.1404849209765296e-02  3.9419534119593320e-02  3.7756628022484910e-02  3.6381131630333512e-02  3.5196974869728580e-02  3.4198799639932984e-02  3.3299103649610771e-02  3.2486569506019143e-02  3.1778856879922164e-02  3.1112742546815876e-02  3.0480146371268561e-02  2.9904814080136989e-02  2.9327124688444027e-02  2.8804776993909841e-02  2.8281036215002723e-02  2.7772201311267480e-02  2.7280797431585055e-02  2.6808290886732637e-02  2.6354454741045873e-02  2.5896520837386475e-02  2.5462931626588813e-02  2.5014745347352086e-02  2.4582364590770185e-02  2.4160632678955560e-02  2.3754546690522706e-02  2.3366514986544955e-02  2.2976704907021923e-02  2.2612527820217138e-02  2.2254604706919277e-02  2.1913600913913298e-02  2.1589369482403326e-02  2.1269227124584070e-02  2.1000908723697594e-02  2.0738311196653758e-02  2.0278498941318272e-02  2.0089340776424471e-02  1.9919497412483510e-02  1.9782131219830613e-02  1.9654187768237498e-02  1.9550163292121975e-02  1.9482132398436717e-02  1.9429950010568752e-02  1.9387061589401913e-02  1.9404296038285675e-02  1.9433045167689227e-02  1.9563068550655684e-02  1.9663786689855457e-02  1.9790622752480329e-02  1.9954448366802817e-02  2.0134718054603633e-02  2.0347324370087166e-02  2.0589678153850988e-02  2.0850707152935698e-02  2.1122132431583368e-02  2.1443059721263459e-02  2.1776079765118982e-02  2.2540061963614202e-02  2.2964367201958658e-02  2.3400284989921982e-02  2.3881932254251496e-02  2.4376934029025060e-02  2.4887365461072279e-02  2.5419139158244695e-02  2.5960507515531205e-02  2.6521946846034639e-02  2.7083770151473643e-02  2.7664519467192623e-02  2.8254863498716844e-02  2.8857340388966660e-02  2.9464915791444078e-02  3.0065115930419786e-02  3.0657461651423763e-02  3.1245308467883925e-02  3.1836772097267735e-02  3.2429860078421940e-02  3.3018800731945235e-02  3.3593009976621645e-02  3.4151512215607485e-02  3.4693659526613387e-02  3.5227061126275550e-02  3.5731791258945669e-02  3.6221465765390308e-02  3.6700091101157774e-02  3.7137528300912416e-02  3.7564010428287289e-02  3.7967350081186076e-02  3.8352339686337986e-02  3.8702820681584635e-02  3.9026527242325741e-02  3.9322236490506875e-02  3.9588713305901010e-02  3.9828318700860600e-02  4.0031912891309029e-02  4.0213756983965801e-02  4.0358358432726969e-02  4.0487152780565569e-02  4.0545419065255640e-02  4.0600045338728998e-02  4.0384416724577911e-02  3.9921175602769657e-02  3.9361928336333986e-02  3.8780276423309279e-02  3.8208839064891496e-02  3.7669929753257690e-02  3.7175359265761251e-02  3.6722509541933984e-02  3.6300481106168271e-02  3.5910334252752897e-02  3.5552282436461899e-02  3.5222878012291625e-02  3.4908351358124048e-02  3.4614530015334849e-02  3.4331770996860453e-02  3.4054954326241282e-02  3.3786292898894101e-02  3.3520578622476364e-02  3.3251855800470381e-02  3.2972308604306284e-02  3.2688942845076868e-02  3.2389565865795056e-02  3.2076848301205836e-02  3.1740589640717951e-02  3.1386030211427295e-02  3.1010598507956098e-02  3.0604490376350043e-02  3.0173858931799802e-02  2.9703389382525786e-02  2.9210714268680282e-02  2.8683123452314902e-02  2.8123924717371747e-02  2.7526817442413122e-02  2.6896511562151587e-02  2.6234440706560697e-02  2.5540673206707928e-02  2.4816801421901374e-02  2.4064481677074954e-02  2.3281881981618482e-02  2.2460494685779195e-02  2.1627466052790284e-02  2.0774001657491676e-02  1.9906125052359971e-02  1.9028418665243064e-02  1.8130986246116646e-02  1.7239841704723039e-02  1.6329974624338609e-02  1.5424217535134312e-02  1.4530624627987964e-02  1.3650173131028773e-02  1.2784835357850906e-02  1.1921680036784055e-02  1.1096777365851344e-02  1.0285703362582492e-02  9.4981877381874920e-03  8.7499661449541247e-03  8.0226101277628917e-03  7.3300784207830164e-03  6.6746402708859369e-03  6.0504005463951531e-03  5.4685517517493931e-03  4.9163689949170974e-03  4.4045594521254202e-03  3.9269870654257133e-03  3.4855552437443476e-03  3.0769859896747523e-03  2.6983368620494838e-03  2.3584987800427601e-03  2.0438385221865757e-03  1.7610004790182424e-03  1.5047411249892904e-03  1.2763427572037849e-03  1.0701789378412005e-03  8.8951585469792681e-04  7.2778192803959584e-04  5.8696105402468511e-04  4.6649575930221966e-04  3.6138016144978639e-04  2.7355526166522788e-04  1.9990492353689257e-04  1.4039789484006815e-04  9.4548560826273080e-05  6.0998382908396608e-05  3.9636363755527894e-05  2.9393166482233897e-05  2.9363253693715286e-05  3.9066642078020799e-05  5.7430730246528656e-05  8.3866952757873477e-05  1.1738969900180866e-04  1.5879928186166015e-04  2.0777651890406084e-04  2.6546422075153752e-04  3.3039448438832678e-04  4.0485528086787743e-04  4.8567921690598220e-04  5.7323272231499321e-04  6.5838216669899022e-04  7.2855648657578845e-04  7.6395576591439362e-04  7.6163914062919876e-04  7.6053228682111489e-04  7.5231098351920907e-04  7.4624628104033044e-04  7.3836191894788544e-04  7.2824685916716286e-04  7.1796525215633280e-04  7.0458174086336211e-04  6.9151582730544959e-04  6.7689746440429733e-04  6.6093198239522714e-04  6.4313138528905188e-04  6.2401617889371096e-04  6.0398541811542599e-04  5.8278047221580994e-04  5.6054069840373089e-04  5.3681403508891229e-04  5.1194257128272050e-04  4.8662117076090559e-04  4.6075633923537351e-04  4.3357725083631563e-04  4.0627260160822196e-04  3.7879642984509429e-04  3.5082333759773872e-04  3.2328671404650643e-04  2.9715578473111988e-04  2.7051042262015118e-04  2.4441227705867554e-04  2.1922045512017246e-04  1.9466374126425891e-04  1.7238932457591923e-04  1.5209104012987271e-04  1.3374603267518115e-04  1.1907918242802202e-04  1.1057164286615900e-04  1.0981537091833978e-04  1.2274622331219851e-04  1.5923465364442869e-04  2.3614840223383336e-04  3.9167554469513992e-04  6.7947277101655190e-04  2.1103045355536916e-03  3.6946401503046666e-03  6.4936131562495216e-03  1.1262323696149920e-02  1.9741246998392810e-02  3.4723756641769091e-02  6.0784022495110508e-02  1.0622298431019726e-01  1.8493089163726206e-01  3.2702567990014264e-01  5.7160167056072120e-01  1.0000000000000000e+00  1.0000000000000000e+00  1.0000000000000000e+00  1.0000000000000000e+00  1.0000000000000000e+00  1.0000000000000000e+00  1.0000000000000000e+00  9.9999999999999989e-01  1.0000000000000000e+00  1.0000000000000000e+00  1.0000000000000000e+00  1.0000000000000000e+00  1.0000000000000000e+00  1.0000000000000000e+00  1.0000000000000000e+00  1.0000000000000000e+00  1.0000000000000000e+00  1.0000000000000000e+00  1.0000000000000000e+00  1.0000000000000000e+00  1.0000000000000000e+00  1.0000000000000000e+00  1.0000000000000000e+00  1.0000000000000000e+00  1.0000000000000000e+00  9.9999999999999989e-01  1.0000000000000000e+00  1.0000000000000000e+00  1.0000000000000000e+00  1.0000000000000000e+00  1.0000000000000000e+00  1.0000000000000000e+00  1.0000000000000000e+00  1.0000000000000000e+00  1.0000000000000000e+00  1.0000000000000000e+00  1.0000000000000000e+00  1.0000000000000000e+00  1.0000000000000000e+00  1.0000000000000000e+00  1.0000000000000000e+00  1.0000000000000000e+00  1.0000000000000000e+00  1.0000000000000000e+00  1.0000000000000000e+00  1.0000000000000000e+00  1.0000000000000000e+00  1.0000000000000000e+00  1.0000000000000000e+00  1.0000000000000000e+00  1.0000000000000000e+00  1.0000000000000000e+00  1.0000000000000000e+00  1.0000000000000000e+00  1.0000000000000000e+00  1.0000000000000000e+00  9.9999999999999989e-01  1.0000000000000000e+00  1.0000000000000000e+00  1.0000000000000000e+00  1.0000000000000000e+00  1.0000000000000000e+00  1.0000000000000000e+00  1.0000000000000000e+00  1.0000000000000000e+00  1.0000000000000000e+00  1.0000000000000000e+00  1.0000000000000000e+00  1.0000000000000000e+00  1.0000000000000000e+00  1.0000000000000000e+00  1.0000000000000000e+00  1.0000000000000000e+00  1.0000000000000000e+00  1.0000000000000000e+00  1.0000000000000000e+00  1.0000000000000000e+00  1.0000000000000000e+00  1.0000000000000000e+00  1.0000000000000000e+00  1.0000000000000000e+00  1.0000000000000000e+00  9.9999999999999989e-01  1.0000000000000000e+00  1.0000000000000000e+00  9.9999999999999989e-01  1.0000000000000000e+00  1.0000000000000000e+00  1.0000000000000000e+00  1.0000000000000000e+00  1.0000000000000000e+00  1.0000000000000000e+00  1.0000000000000000e+00  1.0000000000000000e+00  1.0000000000000000e+00  1.0000000000000000e+00  1.0000000000000000e+00  1.0000000000000000e+00  1.0000000000000000e+00  1.0000000000000000e+00  1.0000000000000000e+00  1.0000000000000000e+00  1.0000000000000000e+00  1.0000000000000000e+00  1.0000000000000000e+00  1.0000000000000000e+00  9.9999999999999989e-01  1.0000000000000000e+00  9.9999999999999989e-01  1.0000000000000000e+00  5.7157111106051439e-01  3.2704087383254093e-01  1.8489418112910880e-01  1.0624086867298740e-01  6.0791625772408334e-02  3.4729649778945951e-02  1.9749444601513119e-02  1.1265151648832893e-02  6.4987566366500665e-03  3.6984403088878028e-03  2.1139247313350070e-03  6.8352796809819207e-04  3.9629849806538170e-04  2.4107687266192109e-04  1.6534487499657386e-04  1.2953446117538721e-04  1.1703449803189802e-04  1.1793141732614480e-04  1.2629464957013406e-04  1.4013629331763452e-04  1.5713575034485814e-04  1.7554751517889896e-04  1.9460591452153967e-04  2.1504092027284735e-04  2.3495921195462120e-04  2.5426647816647192e-04  2.7299983717206074e-04  2.8932421738956976e-04  3.0522606070480356e-04  3.1930384333398940e-04  3.3106616886043332e-04  3.4075983127657372e-04  3.4782924643877539e-04  3.5176463376472610e-04  3.5238313449242317e-04  3.5008984394326997e-04  3.4485275323068885e-04  3.3647435143262770e-04  3.2438936102433333e-04  3.0924252403419125e-04  2.9202771685467386e-04  2.7187812847948343e-04  2.4971847746884675e-04  2.2598545418293499e-04  2.0096492801352511e-04  1.7627862466395910e-04  1.5408019267347590e-04  1.3297115576091817e-04  1.1483786234508871e-04  1.0280323764081820e-04  9.7344222322746037e-05  1.0744297757381784e-04  1.2285969602929088e-04  1.1991241067973305e-03  1.2070231033908742e-03  1.2137266380998564e-03  1.2179535541309338e-03  1.2219997789564765e-03  1.2472619437456753e-03  1.2555778080850803e-03  1.2514834726800256e-03  1.2771025981991304e-03  1.3035339957263776e-03  1.2951802809441600e-03  1.3233590488898085e-03  1.3478690630762862e-03  1.3606099204606158e-03  1.3725554306695947e-03  1.3758138440533162e-03  1.3859949784756106e-03  1.3860598370886721e-03  1.4141984203139052e-03  1.4258517949322631e-03  1.4215718879865039e-03  1.4260003015251579e-03  1.4430177512635657e-03  1.4437229629392194e-03  1.4302673366758290e-03  1.4293408955545069e-03  1.4248296367615387e-03  1.4110872434533832e-03  1.4137669785127523e-03  1.3963314917360141e-03  1.3770506784752297e-03  1.3708913385415294e-03  1.3621169633566911e-03  1.3444842829852292e-03  1.3549658994824829e-03  1.3822365619691661e-03  1.3769620521332663e-03  1.4374039331482243e-03  1.5112796308901606e-03  1.6076992827771630e-03  1.8008045574718831e-03  2.0383368907498428e-03  2.3622955758047489e-03  2.8396537121067088e-03  3.4635250182040622e-03  4.3116472395645549e-03  5.4451387339178184e-03  6.8955710586919555e-03  8.7237157104048738e-03  1.1019114765306232e-02  1.3827836234463863e-02  1.7182299829768925e-02  2.1101971318041743e-02  2.5349638817244103e-02  2.9893639581742383e-02  3.4589150571136963e-02  3.9095055066785421e-02  4.3152766026552471e-02  4.6650738216866869e-02  4.9333020924784005e-02  5.1155687063821120e-02  5.2182533055272859e-02  5.2473694358283814e-02  5.2161666677352087e-02  5.1374234881823570e-02  5.0242148809674730e-02  4.8918639511742565e-02  4.7455480355860800e-02  4.5952350214871499e-02  4.4436188502289475e-02  4.3005369812066152e-02  4.1634194453474549e-02  4.0350491405928869e-02  3.9163664832568425e-02  3.8079814760779075e-02  3.7085282132521276e-02  3.6177311368890630e-02  3.5366807794606096e-02  3.4633390185154586e-02  3.3971734759141482e-02  3.3367309735606587e-02  3.2816218430851252e-02  3.2317513188651635e-02  3.1861836282806408e-02  3.1435151593923558e-02  3.1049159980356081e-02  3.0688690646128686e-02  3.0355735511529650e-02  3.0039103283769197e-02  2.9731524841540378e-02  2.9442364852961169e-02  2.9162127093815250e-02  2.8880167380721120e-02  2.8598972802180812e-02  2.8313734309100936e-02  2.8029203241906955e-02  2.7738145088810090e-02  2.7434742672209259e-02  2.7119578683046125e-02  2.6788927658089341e-02  2.6443387446177229e-02  2.6080312712753954e-02  2.5700727076928949e-02  2.5298994159444747e-02  2.4874849116351960e-02  2.4434561974503447e-02  2.3973857423423423e-02  2.3506919203391399e-02  2.3044035240914834e-02  2.2616700988456362e-02  2.2281186148596061e-02  1.2027334320097460e-03  1.2103667898112982e-03  1.2172029218507924e-03  1.2214873628771654e-03  1.2256015083258708e-03  1.2511889985896776e-03  1.2587999230057579e-03  1.2544009119245475e-03  1.2786784891954698e-03  1.3036032085257750e-03  1.2961563252736146e-03  1.3203453444166065e-03  1.3431421480237895e-03  1.3539054145140150e-03  1.3638682611203368e-03  1.3658355865561252e-03  1.3730086558772256e-03  1.3691415273737640e-03  1.3970672179792860e-03  1.4113617278469221e-03  1.4063913339982797e-03  1.4111075599981550e-03  1.4249966202318747e-03  1.4253520173935256e-03  1.4106496409858357e-03  1.4094013860496866e-03  1.4055731749791059e-03  1.3921921121022038e-03  1.3945286145915397e-03  1.3779579189881197e-03  1.3584925297716454e-03  1.3511417911694077e-03  1.3406139049884809e-03  1.3218640914887481e-03  1.3302816394299738e-03  1.3547752397283486e-03  1.3435331392317551e-03  1.3961217329095962e-03  1.4577797987510358e-03  1.5389368484174794e-03  1.7128446748391254e-03  1.9225253134427145e-03  2.2127760651285224e-03  2.6477712759587660e-03  3.2155036336352465e-03  3.9945415311902002e-03  5.0435501862609537e-03  6.3933421191163875e-03  8.1046886607619769e-03  1.0269734597414381e-02  1.2936318248712353e-02  1.6143654936905755e-02  1.9913074170659073e-02  2.4031256986347175e-02  2.8471866070882285e-02  3.3098150980832117e-02  3.7585571333836262e-02  4.1691147528738794e-02  4.5284192148415746e-02  4.8118279479055219e-02  5.0135579416496732e-02  5.1376325804844004e-02  5.1895232443923467e-02  5.1810664693466103e-02  5.1227035263836374e-02  5.0284538319867553e-02  4.9127733303453658e-02  4.7804020879273129e-02  4.6414781577489871e-02  4.4985431402167562e-02  4.3627734247741308e-02  4.2313004640458854e-02  4.1063056334826140e-02  3.9902893200852128e-02  3.8835671098343925e-02  3.7848972428064329e-02  3.6941086401456831e-02  3.6124102504023384e-02  3.5379166405882602e-02  3.4703367870965014e-02  3.4080698645716924e-02  3.3506515641647909e-02  3.2982743051887919e-02  3.2497548679928143e-02  3.2039705114916203e-02  3.1617504093896298e-02  3.1217557548555562e-02  3.0842818673812389e-02  3.0480390455687373e-02  3.0121711342350463e-02  2.9777669791012977e-02  2.9437736373237360e-02  2.9090791560744622e-02  2.8740669862644883e-02  2.8380023236248105e-02  2.8015524347305028e-02  2.7639982081352255e-02  2.7245584799834036e-02  2.6834645212031813e-02  2.6402141814227030e-02  2.5949545543264143e-02  2.5476104359531869e-02  2.4981253586559726e-02  2.4462017425047947e-02  2.3918096703533433e-02  2.3355489620814417e-02  2.2773874025200747e-02  2.2186499807397099e-02  2.1608382412088182e-02  2.1081607247722761e-02  2.0668291778647128e-02  6.3810135020709136e-01  4.3248927570995688e-01  2.9465963365676701e-01  2.1012310832719749e-01  1.5521950008982086e-01  1.1839116028547741e-01  9.3587160463315194e-02  7.6955244211424190e-02  6.5089410490491675e-02  5.6710383110573276e-02  5.0534868804812241e-02  4.5837366188426029e-02  4.2288427217390914e-02  3.9526487112023473e-02  3.7349166163988853e-02  3.5596148122158187e-02  3.4193768224576718e-02  3.3043144368301372e-02  3.2088649138882236e-02  3.1307895361098161e-02  3.0653192882636349e-02  3.0094040527557174e-02  2.9630117307490454e-02  2.9231343166044400e-02  2.8890767340566420e-02  2.8601878595150378e-02  2.8336531056383753e-02  2.8113604981099539e-02  2.7906711134439377e-02  2.7715559927115958e-02  2.7544598495880715e-02  2.7385646200768474e-02  2.7225609374609477e-02  2.7061554376736831e-02  2.6895123386876822e-02  2.6718579624306397e-02  2.6540341724667307e-02  2.6346170479417140e-02  2.6137597285097961e-02  2.5913637145603182e-02  2.5670472388319932e-02  2.5406544991966675e-02  2.5115945247832044e-02  2.4801272270365937e-02  2.4452847023496697e-02  2.4076527420198057e-02  2.3671045778876160e-02  2.3227997342820505e-02  2.2755517855639690e-02  2.2245638898610708e-02  2.1707923663700640e-02  2.1153213441544867e-02  2.0595226849052697e-02  2.0079921355098215e-02  1.9658158187424998e-02  6.8299710878120205e-03  1.6468515162527275e-04  2.8510606799356509e-02  3.4028336930688005e-02  2.1210757725746224e-02  8.2253484068676953e-04  2.1514562944182725e-04  3.5944438741867132e-02  3.1315733497625994e-02  1.5874997015242073e-02  1.8302259872707556e-03  8.5932056667405119e-05  3.1024588985961239e-02  3.4736363035367306e-02  6.3357990023772048e-03  1.4880750717046926e-04  3.6424040306811283e-02  2.4710764245502181e-02  2.6639769201011103e-04  6.7854634673100859e-03  3.3271418390211860e