<?xml version="1.0"?>
<VTKFile type="UnstructuredGrid"  version="0.1"  >
<UnstructuredGrid>
<Piece  NumberOfPoints="15540" NumberOfCells="30546">
<Points>
<DataArray  type="Float64"  NumberOfComponents="3"  format="ascii">0 0 0  -0.5 -0.5 0  0.5 -0.5 0  0.5 0 0  0.5 0.5 0  -0.5 0.5 0  -0.5 0.0001 0  -0.5 -0.0001 0  0.5 0.1 0  0.5 -0.1 0  -0.5 -0.1 0  -0.5 0.1 0  -0.4900000000000277 -0.5 0  -0.4800000000000555 -0.5 0  -0.4700000000000832 -0.5 0  -0.4600000000001109 -0.5 0  -0.4500000000001387 -0.5 0  -0.4400000000001664 -0.5 0  -0.4300000000001942 -0.5 0  -0.4200000000002219 -0.5 0  -0.4100000000002497 -0.5 0  -0.4000000000002774 -0.5 0  -0.3900000000003052 -0.5 0  -0.3800000000003328 -0.5 0  -0.3700000000003606 -0.5 0  -0.3600000000003883 -0.5 0  -0.3500000000004161 -0.5 0  -0.3400000000004438 -0.5 0  -0.3300000000004716 -0.5 0  -0.3200000000004993 -0.5 0  -0.3100000000005271 -0.5 0  -0.3000000000005548 -0.5 0  -0.2900000000005825 -0.5 0  -0.2800000000006103 -0.5 0  -0.2700000000006381 -0.5 0  -0.2600000000006658 -0.5 0  -0.2500000000006935 -0.5 0  -0.2400000000007212 -0.5 0  -0.230000000000749 -0.5 0  -0.2200000000007767 -0.5 0  -0.2100000000008044 -0.5 0  -0.2000000000008322 -0.5 0  -0.19000000000086 -0.5 0  -0.1800000000008877 -0.5 0  -0.1700000000009154 -0.5 0  -0.1600000000009431 -0.5 0  -0.1500000000009709 -0.5 0  -0.1400000000009986 -0.5 0  -0.1300000000010264 -0.5 0  -0.1200000000010541 -0.5 0  -0.1100000000010818 -0.5 0  -0.1000000000011096 -0.5 0  -0.09000000000113734 -0.5 0  -0.08000000000116503 -0.5 0  -0.07000000000119283 -0.5 0  -0.06000000000122058 -0.5 0  -0.05000000000124827 -0.5 0  -0.04000000000127607 -0.5 0  -0.03000000000130376 -0.5 0  -0.02000000000133151 -0.5 0  -0.01000000000135925 -0.5 0  -1.376121439022882e-12 -0.5 0  0.009999999998640763 -0.5 0  0.01999999999866864 -0.5 0  0.02999999999869629 -0.5 0  0.03999999999872406 -0.5 0  0.04999999999875182 -0.5 0  0.05999999999877947 -0.5 0  0.06999999999880724 -0.5 0  0.079999999998835 -0.5 0  0.08999999999886266 -0.5 0  0.09999999999889042 -0.5 0  0.1099999999989182 -0.5 0  0.1199999999989459 -0.5 0  0.1299999999989737 -0.5 0  0.1399999999990014 -0.5 0  0.1499999999990291 -0.5 0  0.1599999999990568 -0.5 0  0.1699999999990847 -0.5 0  0.1799999999991124 -0.5 0  0.1899999999991401 -0.5 0  0.1999999999991678 -0.5 0  0.2099999999991955 -0.5 0  0.2199999999992234 -0.5 0  0.2299999999992511 -0.5 0  0.2399999999992788 -0.5 0  0.2499999999993066 -0.5 0  0.2599999999993342 -0.5 0  0.269999999999362 -0.5 0  0.2799999999993897 -0.5 0  0.2899999999994175 -0.5 0  0.2999999999994452 -0.5 0  0.3099999999994729 -0.5 0  0.3199999999995007 -0.5 0  0.3299999999995284 -0.5 0  0.3399999999995562 -0.5 0  0.3499999999995839 -0.5 0  0.3599999999996116 -0.5 0  0.3699999999996393 -0.5 0  0.379999999999667 -0.5 0  0.3899999999996949 -0.5 0  0.3999999999997226 -0.5 0  0.4099999999997503 -0.5 0  0.419999999999778 -0.5 0  0.4299999999998058 -0.5 0  0.4399999999998336 -0.5 0  0.4499999999998613 -0.5 0  0.4599999999998891 -0.5 0  0.4699999999999167 -0.5 0  0.4799999999999445 -0.5 0  0.4899999999999722 -0.5 0  0.5 -0.4902110204681464 0  0.5 -0.4804459958734807 0  0.5 -0.4707048677450883 0  0.5 -0.4609875815766065 0  0.5 -0.4512940759251849 0  0.5 -0.4416242912883993 0  0.5 -0.4319781678689807 0  0.5 -0.4223556545383647 0  0.5 -0.4127566896324213 0  0.5 -0.4031812128200121 0  0.5 -0.3936291733057916 0  0.5 -0.3841005081172659 0  0.5 -0.3745951585781932 0  0.5 -0.3651130778999337 0  0.5 -0.3556541993788045 0  0.5 -0.3462184677228392 0  0.5 -0.3368058273705318 0  0.5 -0.3274162224888609 0  0.5 -0.3180495969712945 0  0.5 -0.3087058944357755 0  0.5 -0.299385058222682 0  0.5 -0.2900870313927414 0  0.5 -0.2808117567250807 0  0.5 -0.2715591844628491 0  0.5 -0.2623292564012653 0  0.5 -0.253121909553727 0  0.5 -0.2439371050851549 0  0.5 -0.2347747685524501 0  0.5 -0.2256348634421331 0  0.5 -0.2165173209784076 0  0.5 -0.207422087829958 0  0.5 -0.1983491207029381 0  0.5 -0.1892983550950482 0  0.5 -0.1802697378305253 0  0.5 -0.1712632154965152 0  0.5 -0.1622787344187354 0  0.5 -0.1533162406595534 0  0.5 -0.1443756800160514 0  0.5 -0.1354569980180493 0  0.5 -0.1265601399261414 0  0.5 -0.1176850622761093 0  0.5 -0.1088317009011999 0  0.5 -0.09166666666668973 0  0.5 -0.08333333333337943 0  0.5 -0.07500000000006915 0  0.5 -0.06666666666675886 0  0.5 -0.05833333333344858 0  0.5 -0.05000000000013693 0  0.5 -0.04166666666678191 0  0.5 -0.03333333333342643 0  0.5 -0.02500000000006916 0  0.5 -0.01666666666671188 0  0.5 -0.00833333333335548 0  0.5 0.008333333333318314 0  0.5 0.01666666666663358 0  0.5 0.02499999999994162 0  0.5 0.03333333333325101 0  0.5 0.04166666666655769 0  0.5 0.04999999999986843 0  0.5 0.05833333333322258 0  0.5 0.06666666666657715 0  0.5 0.07499999999993352 0  0.5 0.08333333333328992 0  0.5 0.09166666666664541 0  0.5 0.1088317009011616 0  0.5 0.1176850622760307 0  0.5 0.1265601399260203 0  0.5 0.1354569980178909 0  0.5 0.1443756800158549 0  0.5 0.153316240659315 0  0.5 0.1622787344184454 0  0.5 0.1712632154961752 0  0.5 0.1802697378301332 0  0.5 0.1892983550946039 0  0.5 0.1983491207024433 0  0.5 0.2074220878294123 0  0.5 0.216517320977811 0  0.5 0.2256348634414833 0  0.5 0.2347747685517479 0  0.5 0.2439371050844009 0  0.5 0.2531219095529224 0  0.5 0.2623292564004089 0  0.5 0.2715591844619371 0  0.5 0.2808117567241139 0  0.5 0.290087031391723 0  0.5 0.2993850582216101 0  0.5 0.3087058944347426 0  0.5 0.3180495969703129 0  0.5 0.3274162224879299 0  0.5 0.3368058273696494 0  0.5 0.3462184677220051 0  0.5 0.3556541993780186 0  0.5 0.3651130778991989 0  0.5 0.3745951585775107 0  0.5 0.3841005081166359 0  0.5 0.3936291733052134 0  0.5 0.4031812128194852 0  0.5 0.412756689631945 0  0.5 0.4223556545379392 0  0.5 0.431978167868607 0  0.5 0.4416242912880781 0  0.5 0.4512940759249164 0  0.5 0.4609875815763912 0  0.5 0.4707048677449264 0  0.5 0.4804459958733726 0  0.5 0.4902110204680924 0  0.4900000000000277 0.5 0  0.4800000000000555 0.5 0  0.4700000000000832 0.5 0  0.4600000000001109 0.5 0  0.4500000000001387 0.5 0  0.4400000000001664 0.5 0  0.4300000000001942 0.5 0  0.4200000000002219 0.5 0  0.4100000000002497 0.5 0  0.4000000000002774 0.5 0  0.3900000000003052 0.5 0  0.3800000000003328 0.5 0  0.3700000000003606 0.5 0  0.3600000000003883 0.5 0  0.3500000000004161 0.5 0  0.3400000000004438 0.5 0  0.3300000000004716 0.5 0  0.3200000000004993 0.5 0  0.3100000000005271 0.5 0  0.3000000000005548 0.5 0  0.2900000000005825 0.5 0  0.2800000000006103 0.5 0  0.2700000000006381 0.5 0  0.2600000000006658 0.5 0  0.2500000000006935 0.5 0  0.2400000000007212 0.5 0  0.230000000000749 0.5 0  0.2200000000007767 0.5 0  0.2100000000008044 0.5 0  0.2000000000008322 0.5 0  0.19000000000086 0.5 0  0.1800000000008877 0.5 0  0.1700000000009154 0.5 0  0.1600000000009431 0.5 0  0.1500000000009709 0.5 0  0.1400000000009986 0.5 0  0.1300000000010264 0.5 0  0.1200000000010541 0.5 0  0.1100000000010818 0.5 0  0.1000000000011096 0.5 0  0.09000000000113734 0.5 0  0.08000000000116503 0.5 0  0.07000000000119283 0.5 0  0.06000000000122058 0.5 0  0.05000000000124827 0.5 0  0.04000000000127607 0.5 0  0.03000000000130376 0.5 0  0.02000000000133151 0.5 0  0.01000000000135925 0.5 0  1.376121439022882e-12 0.5 0  -0.009999999998640763 0.5 0  -0.01999999999866864 0.5 0  -0.02999999999869629 0.5 0  -0.03999999999872406 0.5 0  -0.04999999999875182 0.5 0  -0.05999999999877947 0.5 0  -0.06999999999880724 0.5 0  -0.079999999998835 0.5 0  -0.08999999999886266 0.5 0  -0.09999999999889042 0.5 0  -0.1099999999989182 0.5 0  -0.1199999999989459 0.5 0  -0.1299999999989737 0.5 0  -0.1399999999990014 0.5 0  -0.1499999999990291 0.5 0  -0.1599999999990568 0.5 0  -0.1699999999990847 0.5 0  -0.1799999999991124 0.5 0  -0.1899999999991401 0.5 0  -0.1999999999991678 0.5 0  -0.2099999999991955 0.5 0  -0.2199999999992234 0.5 0  -0.2299999999992511 0.5 0  -0.2399999999992788 0.5 0  -0.2499999999993066 0.5 0  -0.2599999999993342 0.5 0  -0.269999999999362 0.5 0  -0.2799999999993897 0.5 0  -0.2899999999994175 0.5 0  -0.2999999999994452 0.5 0  -0.3099999999994729 0.5 0  -0.3199999999995007 0.5 0  -0.3299999999995284 0.5 0  -0.3399999999995562 0.5 0  -0.3499999999995839 0.5 0  -0.3599999999996116 0.5 0  -0.3699999999996393 0.5 0  -0.379999999999667 0.5 0  -0.3899999999996949 0.5 0  -0.3999999999997226 0.5 0  -0.4099999999997503 0.5 0  -0.419999999999778 0.5 0  -0.4299999999998058 0.5 0  -0.4399999999998336 0.5 0  -0.4499999999998613 0.5 0  -0.4599999999998891 0.5 0  -0.4699999999999167 0.5 0  -0.4799999999999445 0.5 0  -0.4899999999999722 0.5 0  -0.5 0.4902110204681464 0  -0.5 0.4804459958734807 0  -0.5 0.4707048677450883 0  -0.5 0.4609875815766065 0  -0.5 0.4512940759251849 0  -0.5 0.4416242912883993 0  -0.5 0.4319781678689807 0  -0.5 0.4223556545383647 0  -0.5 0.4127566896324213 0  -0.5 0.4031812128200121 0  -0.5 0.3936291733057916 0  -0.5 0.3841005081172659 0  -0.5 0.3745951585781932 0  -0.5 0.3651130778999337 0  -0.5 0.3556541993788045 0  -0.5 0.3462184677228392 0  -0.5 0.3368058273705318 0  -0.5 0.3274162224888609 0  -0.5 0.3180495969712945 0  -0.5 0.3087058944357755 0  -0.5 0.299385058222682 0  -0.5 0.2900870313927414 0  -0.5 0.2808117567250807 0  -0.5 0.2715591844628491 0  -0.5 0.2623292564012653 0  -0.5 0.253121909553727 0  -0.5 0.2439371050851549 0  -0.5 0.2347747685524501 0  -0.5 0.2256348634421331 0  -0.5 0.2165173209784076 0  -0.5 0.207422087829958 0  -0.5 0.1983491207029381 0  -0.5 0.1892983550950482 0  -0.5 0.1802697378305253 0  -0.5 0.1712632154965152 0  -0.5 0.1622787344187354 0  -0.5 0.1533162406595534 0  -0.5 0.1443756800160514 0  -0.5 0.1354569980180493 0  -0.5 0.1265601399261414 0  -0.5 0.1176850622761093 0  -0.5 0.1088317009011999 0  -0.5 0.09167500000001694 0  -0.5 0.08335000000003931 0  -0.5 0.07502500000006167 0  -0.5 0.06670000000008947 0  -0.5 0.05837500000011001 0  -0.5 0.0500500000001328 0  -0.5 0.0417250000001127 0  -0.5 0.03340000000008944 0  -0.5 0.02507500000006573 0  -0.5 0.01675000000004653 0  -0.5 0.008425000000027341 
[...]
<PointData  Scalars="f_31"> 
<DataArray  type="Float64"  Name="f_31"  format="ascii">1.0000000000000000e+00  1.4125067726280045e-09  2.2379102239840495e-06  9.9524046986355230e-01  9.8027604531999612e-07  1.3846134347503964e-08  1.0000000000000000e+00  1.0000000000000000e+00  2.0832081669985418e-03  1.1728409716873134e-03  1.1821038997647038e-03  1.1815696436414036e-03  1.5678164355710504e-09  1.9500945818060934e-09  2.4546214547535237e-09  3.0076889423217825e-09  3.5365887804444562e-09  4.0488535166019293e-09  4.5426031061413385e-09  5.0555505099905259e-09  5.5502803468745709e-09  6.0613784382398197e-09  6.5934305023206128e-09  7.1922372621710680e-09  7.8268979986394204e-09  8.5187311258920456e-09  9.2885240049618430e-09  1.0155553471333622e-08  1.1169034169619461e-08  1.2264356715369679e-08  1.3493800678516986e-08  1.4882580539523805e-08  1.6364836850419536e-08  1.7998538861435342e-08  1.9840823488194250e-08  2.1771967967123886e-08  2.3905056829014567e-08  2.6216135460282003e-08  2.8710161657824625e-08  3.1460406515315253e-08  3.4324992594350647e-08  3.7485093381733319e-08  4.0812445114110612e-08  4.4373413987233072e-08  4.8155977454822852e-08  5.2213462511202754e-08  5.6502748511821729e-08  6.1007082809000471e-08  6.5768281801144299e-08  7.0802245248620452e-08  7.6077621856970248e-08  8.1556400655790617e-08  8.7324971310591904e-08  9.3362637251940402e-08  9.9560835110702995e-08  1.0607065517486285e-07  1.1275673274289783e-07  1.1977014856613668e-07  1.2689944461714066e-07  1.3425293610221381e-07  1.4188090045753740e-07  1.4965224907897677e-07  1.5762571090786404e-07  1.6578644728217657e-07  1.7421223627120217e-07  1.8281189531292737e-07  1.9142415632844088e-07  2.0023619030032696e-07  2.0924026686129354e-07  2.1843976721487123e-07  2.2776058319024584e-07  2.3716570285239752e-07  2.4690482697881593e-07  2.5683461341846356e-07  2.6670820715882582e-07  2.7684666150164166e-07  2.8722847253768733e-07  2.9763442532018281e-07  3.0843856469798057e-07  3.1931124087819822e-07  3.3043142039024189e-07  3.4190222169283464e-07  3.5368273508246162e-07  3.6580786499313686e-07  3.7825504710811855e-07  3.9091805872454320e-07  4.0409409127241334e-07  4.1785855836141876e-07  4.3204324895906907e-07  4.4694733194232380e-07  4.6276279712406209e-07  4.7919410201971395e-07  4.9685181221264377e-07  5.1532031071847807e-07  5.3496005365835107e-07  5.5618924284005266e-07  5.7940881623975661e-07  6.0446416835844606e-07  6.3206140736277556e-07  6.6330410358870804e-07  6.9791169455766202e-07  7.3786096072520325e-07  7.8385347319805242e-07  8.3979856957258071e-07  9.0576982113944320e-07  9.8893464514704637e-07  1.0955312826082214e-06  1.2357469314439433e-06  1.4196407002659969e-06  1.6608258041346677e-06  1.9723946991908021e-06  2.0735282521015124e-06  1.7817858749861029e-06  1.5540663476054997e-06  1.3762062052294955e-06  1.2488787536944509e-06  1.1551503481375135e-06  1.0861859333592201e-06  1.0332265282794650e-06  9.9186460666943525e-07  9.5964278581607916e-07  9.3348031650470236e-07  9.1278455421251427e-07  8.9582662398756162e-07  8.8248307680661416e-07  8.7134373418463631e-07  8.6221444125139827e-07  8.5503283743241982e-07  8.4920517248527870e-07  8.4450816571400578e-07  8.4117958392172245e-07  8.3894475929229220e-07  8.3829309375058270e-07  8.3962960305315449e-07  8.4405103333603685e-07  8.5363686103912843e-07  8.7208639475452686e-07  9.0682360391411839e-07  9.6776325715864873e-07  1.0831459344656371e-06  1.2953472782277008e-06  1.6797910518379911e-06  2.4062596241761890e-06  3.7116676491416131e-06  6.1161094959993879e-06  1.0395800201819409e-05  1.8533661023056303e-05  3.3366400086043233e-05  6.0617411457500354e-05  1.0961509341338991e-04  1.9702647374023069e-04  3.5929821151256590e-04  6.5187586320613114e-04  2.0752658472284742e-03  3.6554512450371946e-03  6.4464777410732834e-03  1.1193197382076522e-02  1.9603923497378693e-02  3.4413322354790131e-02  6.0200749997220949e-02  1.0531207840878500e-01  1.8367841817803196e-01  3.2606027376180369e-01  5.7248734013645175e-01  9.8645797767840659e-01  5.7464708749695548e-01  3.3122804433744440e-01  1.8544155040805899e-01  1.0568387242028339e-01  6.0437334313652558e-02  3.4464916514200264e-02  1.9681011434282514e-02  1.1181305647357528e-02  6.4714306632244357e-03  3.6848879271491886e-03  1.1572845797278588e-03  6.3761970424188049e-04  3.4947114827088034e-04  1.9419279235850407e-04  1.0713203380280359e-04  5.8704750365609599e-05  3.2349825826045573e-05  1.7884825900922037e-05  1.0289570387320616e-05  6.0287263798253892e-06  3.7137313059872733e-06  2.4308930924391004e-06  1.7533384089373466e-06  1.3806997756305134e-06  1.1794986009460514e-06  1.0738645410552804e-06  1.0143853866471646e-06  9.8309001046833016e-07  9.6678347678709540e-07  9.5873699170245529e-07  9.5513252888393247e-07  9.5440008145158196e-07  9.5435509579461153e-07  9.5581010751482234e-07  9.5713468364161077e-07  9.5889295247380598e-07  9.6125018175793930e-07  9.6276084622333757e-07  9.6461777696167626e-07  9.6663720922508965e-07  9.6855111005015327e-07  9.7024479021275381e-07  9.7175879624015310e-07  9.7334535716967993e-07  9.7478077597616355e-07  9.7607348308416851e-07  9.7708467420753432e-07  9.7813875210415305e-07  9.7886827389474278e-07  9.7996941262726955e-07  9.7973671021912582e-07  9.8019176508828226e-07  9.7367471334901649e-07  9.5978780592874095e-07  9.4224501644183990e-07  9.2302873227887398e-07  9.0302787221064192e-07  8.8303978206913573e-07  8.6344951350526151e-07  8.4437515133428016e-07  8.2545470744501618e-07  8.0707288228122019e-07  7.8919030651435799e-07  7.7184814568040792e-07  7.5466247740178827e-07  7.3810419995330028e-07  7.2188060473555798e-07  7.0589911473284142e-07  6.9031251667807853e-07  6.7502417495769687e-07  6.6007132032034879e-07  6.4514578154443628e-07  6.3061367817182191e-07  6.1612932753611118e-07  6.0191875307338498e-07  5.8758647063707787e-07  5.7350280609961331e-07  5.5957691695145360e-07  5.4548140067031306e-07  5.3149035608705865e-07  5.1717331315793244e-07  5.0307456409498527e-07  4.8884329953776145e-07  4.7455644828189957e-07  4.6005732086338140e-07  4.4546878793521471e-07  4.3080522378531989e-07  4.1605995424312003e-07  4.0121771287143623e-07  3.8628424253918901e-07  3.7120424459112866e-07  3.5583230431154610e-07  3.4062964181657816e-07  3.2539167261251034e-07  3.1020566846090343e-07  2.9513511681174275e-07  2.7996612020535545e-07  2.6512770535736493e-07  2.5017836638715921e-07  2.3546837131501719e-07  2.2110090020002643e-07  2.0708181404222418e-07  1.9342690053711517e-07  1.7991021858297069e-07  1.6708246711209032e-07  1.5454065792516370e-07  1.4242415866693116e-07  1.3096751261114940e-07  1.1987054262598721e-07  1.0935380663156334e-07  9.9429789336134530e-08  9.0000619024607572e-08  8.1239781435149496e-08  7.2942311942580602e-08  6.5262510893287937e-08  5.8105053473911913e-08  5.1501204700002187e-08  4.5398115049790894e-08  3.9747044322802350e-08  3.4679195715589205e-08  2.9990427182696549e-08  2.5779539475976498e-08  2.1966271411216824e-08  1.8569273591327395e-08  1.5509184685781425e-08  1.2831387947363626e-08  1.0439284229987985e-08  8.3619089452599596e-09  6.5915905380709320e-09  5.0552966234544530e-09  3.7811956484915191e-09  2.7242233998451387e-09  1.8878281906977108e-09  1.2610147210540251e-09  8.2618682679268075e-10  5.8272680317784265e-10  5.1147613722740292e-10  6.0203146659577114e-10  8.4445817010135249e-10  1.2235151199944336e-09  1.7313589214983964e-09  2.3534645542611631e-09  3.1069498277283761e-09  3.9874760469838149e-09  5.0165431134443206e-09  6.1696629304467615e-09  7.4891567232870537e-09  8.9197718207994481e-09  1.0469555687359219e-08  1.1977338006953198e-08  1.3221120486738965e-08  1.3847808788092715e-08  1.3802617183413422e-08  1.3776292535166063e-08  1.3620911804301344e-08  1.3501017988908809e-08  1.3346487439678053e-08  1.3150685277802574e-08  1.2950386674428768e-08  1.2693688127184640e-08  1.2441384357561761e-08  1.2161455659262784e-08  1.1858363773234859e-08  1.1524656088931687e-08  1.1172818552025843e-08  1.0812986553450804e-08  1.0449349177223147e-08  1.0098693724777179e-08  9.7801149432994532e-09  9.5467971064500079e-09  9.5117395597413007e-09  9.8370065101376471e-09  1.0831093082202019e-08  1.3119719947851705e-08  1.7839403982464213e-08  2.6991276689306398e-08  4.4406557924995729e-08  7.6950815597829014e-08  1.3826981172585798e-07  2.5245133875242588e-07  4.6338008929791691e-07  8.5273954183854120e-07  1.5601748945025176e-06  2.8725676303139463e-06  5.2962498469127042e-06  9.6253326461814387e-06  1.7807055287375712e-05  3.2580349024760668e-05  5.9489562895380791e-05  1.0813366004623268e-04  1.9581908070977522e-04  3.5979684628077377e-04  6.5481775218372842e-04  2.0961164577699498e-03  3.6840474421488559e-03  6.4858480615901807e-03  1.1256664942037172e-02  1.9737252549898662e-02  3.4720941312571037e-02  6.0782049337074144e-02  1.0622165161977339e-01  1.8493003603266917e-01  3.2702515526144693e-01  5.7160142369630540e-01  1.0000000000000000e+00  1.0000000000000000e+00  1.0000000000000000e+00  1.0000000000000000e+00  1.0000000000000000e+00  1.0000000000000000e+00  1.0000000000000000e+00  1.0000000000000000e+00  1.0000000000000000e+00  1.0000000000000000e+00  1.0000000000000000e+00  1.0000000000000000e+00  1.0000000000000000e+00  1.0000000000000000e+00  1.0000000000000000e+00  1.0000000000000000e+00  1.0000000000000000e+00  1.0000000000000000e+00  1.0000000000000000e+00  1.0000000000000000e+00  1.0000000000000000e+00  1.0000000000000000e+00  1.0000000000000000e+00  1.0000000000000000e+00  1.0000000000000000e+00  1.0000000000000000e+00  1.0000000000000000e+00  1.0000000000000000e+00  1.0000000000000000e+00  1.0000000000000000e+00  1.0000000000000000e+00  1.0000000000000000e+00  1.0000000000000000e+00  1.0000000000000000e+00  1.0000000000000000e+00  1.0000000000000000e+00  1.0000000000000000e+00  1.0000000000000000e+00  1.0000000000000000e+00  1.0000000000000000e+00  1.0000000000000000e+00  1.0000000000000000e+00  1.0000000000000000e+00  1.0000000000000000e+00  1.0000000000000000e+00  1.0000000000000000e+00  1.0000000000000000e+00  1.0000000000000000e+00  1.0000000000000000e+00  1.0000000000000000e+00  1.0000000000000000e+00  1.0000000000000000e+00  1.0000000000000000e+00  1.0000000000000000e+00  1.0000000000000000e+00  1.0000000000000000e+00  1.0000000000000000e+00  1.0000000000000000e+00  1.0000000000000000e+00  1.0000000000000000e+00  1.0000000000000000e+00  1.0000000000000000e+00  1.0000000000000000e+00  1.0000000000000000e+00  1.0000000000000000e+00  1.0000000000000000e+00  1.0000000000000000e+00  1.0000000000000000e+00  1.0000000000000000e+00  1.0000000000000000e+00  1.0000000000000000e+00  1.0000000000000000e+00  1.0000000000000000e+00  1.0000000000000000e+00  1.0000000000000000e+00  1.0000000000000000e+00  1.0000000000000000e+00  1.0000000000000000e+00  1.0000000000000000e+00  9.9999999999999989e-01  1.0000000000000000e+00  1.0000000000000000e+00  1.0000000000000000e+00  1.0000000000000000e+00  1.0000000000000000e+00  1.0000000000000000e+00  1.0000000000000000e+00  1.0000000000000000e+00  1.0000000000000000e+00  1.0000000000000000e+00  1.0000000000000000e+00  1.0000000000000000e+00  9.9999999999999989e-01  1.0000000000000000e+00  1.0000000000000000e+00  1.0000000000000000e+00  1.0000000000000000e+00  1.0000000000000000e+00  1.0000000000000000e+00  1.0000000000000000e+00  1.0000000000000000e+00  1.0000000000000000e+00  1.0000000000000000e+00  1.0000000000000000e+00  1.0000000000000000e+00  1.0000000000000000e+00  1.0000000000000000e+00  1.0000000000000000e+00  1.0000000000000000e+00  1.0000000000000000e+00  5.7157081540440779e-01  3.2704024577953933e-01  1.8489315724979336e-01  1.0623927487890161e-01  6.0789268495364715e-02  3.4726290622982381e-02  1.9744685357054440e-02  1.1258434694723683e-02  6.4895802613863371e-03  3.6859954120886653e-03  2.0973559776013271e-03  6.5513207341655409e-04  3.5991682747334457e-04  1.9537140295713531e-04  1.0819464240889244e-04  5.9556816014433058e-05  3.2618507569620365e-05  1.7822492981866781e-05  9.6353357737043290e-06  5.2993063130283271e-06  2.8736176391541795e-06  1.5609468535004040e-06  8.5335599808776701e-07  4.6386559604812015e-07  2.5261674164864733e-07  1.3822284968638631e-07  7.6726618319772487e-08  4.4003007069821183e-08  2.6402445121595021e-08  1.7023873625150754e-08  1.2051338423904142e-08  9.4785707261448487e-09  8.1611275619338765e-09  7.4751732006086806e-09  7.1043523237797412e-09  6.8883062154841240e-09  6.7235708109390906e-09  6.5598739802519712e-09  6.3604549839028964e-09  6.1190693663089112e-09  5.8446095181691189e-09  5.5161854639937759e-09  5.1443526172358081e-09  4.7341267612118470e-09  4.2859226279388437e-09  3.8262327687251237e-09  3.3775819640304829e-09  2.9191831033724063e-09  2.4688617830876557e-09  2.0690235189120010e-09  1.7201035884496598e-09  1.5473972397645666e-09  1.4337537401057640e-09  1.1789204093673052e-03  1.1823895299193322e-03  1.1825377267255647e-03  1.1783920935815307e-03  1.1725498900428989e-03  1.1865518656783425e-03  1.1823443648618166e-03  1.1649284307385169e-03  1.1761299338641402e-03  1.1877955343701720e-03  1.1644080671518739e-03  1.1772138173736064e-03  1.1866790042662973e-03  1.1848095080377835e-03  1.1827268381019455e-03  1.1728076658654677e-03  1.1708280384100959e-03  1.1599246820614393e-03  1.1781966965934716e-03  1.1818599450549947e-03  1.1710658639088253e-03  1.1707869453328940e-03  1.1852148133653037e-03  1.1857310864904684e-03  1.1735550284781783e-03  1.1765836677543797e-03  1.1783764695638256e-03  1.1720836513730943e-03  1.1845671959694092e-03  1.1781986487054529e-03  1.1702460209232638e-03  1.1757994695175817e-03  1.1763649526203312e-03  1.1653851265284096e-03  1.1765431639321720e-03  1.1925433155970855e-03  1.1657451158714328e-03  1.1823808648505471e-03  1.1817498867863043e-03  1.1674920990095200e-03  1.1922207915116632e-03  1.1867611845233007e-03  1.1722767587763485e-03  1.1877711542086062e-03  1.1776708235910482e-03  1.1861136130950599e-03  1.2156465325648131e-03  1.2379581555121949e-03  1.2544074793757482e-03  1.3076098054881622e-03  1.3639367465598951e-03  1.4200780367707609e-03  1.5303243131118531e-03  1.6189869579576815e-03  1.7108416387779514e-03  1.8257533216644859e-03  1.9029759949782243e-03  1.9498541277009605e-03  2.0444069137720042e-03  2.0715434734971225e-03  2.0804535728855501e-03  2.1053946997654821e-03  2.0676281164599079e-03  2.0834518109350188e-03  2.0827244984164758e-03  2.0770908067864044e-03  2.0547003544775168e-03  2.0172461580964742e-03  2.0452916161562630e-03  2.0497702310974279e-03  2.0371579703107367e-03  2.0213026664133026e-03  2.0237283079478693e-03  2.0176254812550396e-03  1.9843793055055571e-03  2.0009244567693683e-03  1.9900204238929263e-03  1.9702863098674090e-03  1.9894096093232339e-03  1.9772483746123130e-03  1.9631434263397162e-03  1.9867369829049296e-03  1.9966588547148567e-03  1.9765237593741165e-03  1.9695549672010984e-03  2.0190346211327839e-03  2.0125092023536113e-03  2.0144751191384508e-03  2.0146021592183038e-03  1.9883147942194707e-03  2.0106697224207279e-03  2.0275408989794616e-03  2.0280533129695614e-03  2.0289513355766266e-03  1.9980318481424958e-03  2.0269336641334035e-03  2.0430669392288527e-03  2.0524804700416993e-03  2.0420010334617059e-03  2.0471799392519272e-03  2.0594253992034200e-03  2.0711528607933460e-03  2.0725755249947847e-03  2.0861077362849790e-03  2.0964631706256020e-03  2.0858794277032475e-03  2.0913738980932140e-03  2.0867513383405509e-03  2.0679325756196168e-03  2.0973126743597586e-03  2.1113459156671547e-03  1.1794952803647015e-03  1.1825743433971792e-03  1.1827080235778198e-03  1.1785087795851020e-03  1.1727011853114450e-03  1.1871302362277977e-03  1.1825188707721061e-03  1.1653066722078010e-03  1.1759460302825904e-03  1.1871411834335713e-03  1.1659237247141365e-03  1.1762296589797956e-03  1.1856513226151759e-03  1.1836506139530798e-03  1.1814975164849248e-03  1.1721843853712444e-03  1.1690804859979574e-03  1.1560843601431227e-03  1.1758505247631917e-03  1.1836941077612644e-03  1.1735508485566733e-03  1.1746535525961996e-03  1.1869485053485039e-03  1.1876840335378934e-03  1.1745462001797903e-03  1.1772735330612880e-03  1.1795150732858647e-03  1.1732244247810641e-03  1.1848449332790823e-03  1.1787041403726283e-03  1.1700862165784809e-03  1.1742562098741134e-03  1.1733517731166224e-03  1.1623190332855559e-03  1.1733663547450269e-03  1.1899292304627519e-03  1.1625886069197501e-03  1.1791147157570235e-03  1.1773925069579949e-03  1.1627033198341611e-03  1.1881356606751419e-03  1.1816196724538702e-03  1.1669621883535566e-03  1.1812349258115858e-03  1.1665806326137871e-03  1.1664972081060841e-03  1.1814988891195571e-03  1.1826848718257518e-03  1.1675776200668424e-03  1.1769891952090217e-03  1.1772407930664126e-03  1.1600189798003763e-03  1.1784368071541516e-03  1.1755158832790615e-03  1.1680774025328638e-03  1.1772802292128752e-03  1.1733584678716813e-03  1.1578675861371392e-03  1.1797288759355224e-03  1.1753076527490612e-03  1.1678335875393592e-03  1.1775469691919641e-03  1.1562302522145223e-03  1.1668820855037403e-03  1.1696291693572833e-03  1.1697868031518694e-03  1.1608713858802585e-03  1.1441078510213295e-03  1.1649219883454226e-03  1.1735550604326740e-03  1.1721411911392993e-03  1.1666672354076310e-03  1.1744394867858970e-03  1.1765754444521906e-03  1.1629112810333591e-03  1.1780946536299535e-03  1.1766445885827864e-03  1.1686234176160742e-03  1.1818471898458643e-03  1.1742435696428101e-03  1.1632403353731254e-03  1.1733210807359136e-03  1.1743645344166212e-03  1.1600085213298781e-03  1.1494251383852528e-03  1.1739497874014089e-03  1.1675021324552809e-03  1.1679689103901393e-03  1.1691770974852885e-03  1.1554326755348462e-03  1.1690580822921949e-03  1.1788075489868280e-03  1.1767683682480452e-03  1.1728828325259660e-03  1.1511884723888102e-03  1.1652771681061251e-03  1.1726710596644961e-03  1.1768562084784114e-03  1.1682985023239681e-03  1.1680070155767166e-03  1.1703893901066425e-03  1.1725628156008291e-03  1.1701463849896191e-03  1.1752406961896523e-03  1.1797486106785672e-03  1.1737678294866240e-03  1.1757860660502326e-03  1.1737036549516915e-03  1.1624321120231032e-03  1.1798781670954424e-03  1.1895043906338719e-03  9.9278293948609708e-01  9.9791582316852545e-01  9.9396681527794317e-01  9.9537157176142788e-01  9.9604608775394576e-01  9.9548626330189804e-01  9.9591719751868257e-01  9.9627915611852014e-01  9.9522671139903929e-01  9.9569375458078180e-01  9.9439370210400502e-01  9.9735669157579954e-01  9.9482472912792619e-01  9.9645780381099769e-01  9.9592622441120260e-01  9.9640392582799531e-01  9.9621870386710587e-01  9.9614514023467682e-01  9.9640726996264650e-01  9.9637310933357015e-01  9.9646308267038131e-01  9.9656886460458760e-01  9.9660293322153548e-01  9.9688236260597118e-01  9.9689582173963087e-01  9.9520507536180158e-01  9.9838289207496134e-01  9.9564949866227825e-01  9.9700509473850740e-01  9.9590732954372307e-01  9.9525016118234133e-01  9.9531786524292032e-01  9.9598105403708503e-01  9.9700211573731079e-01  9.9562357821982383e-01  9.9854791943056953e-01  9.9528596524706303e-01  9.9530217025344481e-01  9.9815416969104820e-01  9.9478778902053533e-01  9.9566159485581562e-01  9.9541917600924235e-01  9.9652611840044947e-01  9.9617139694088608e-01  9.9577293853685234e-01  9.9587239277844219e-01  9.9504400989563557e-01  9.9570350133842178e-01  9.9616033745335264e-01  9.9558179731801832e-01  9.9617413029336777e-01  9.9554989361163393e-01  9.9620987419985474e-01  9.9452294727501145e-01  9.9677322179956884e-01  1.0532479576659028e-07  4.9224713432122790e-09  4.3647908998393611e-07  6.4774801864414725e-07  7.7679100237892039e-07  3.0915727060589473e-07  3.5039684307283991e-07  1.1384262269921498e-06  5.3127919960839701e-07  2.4032597773090452e-07  2.7366018233445897e-08  1.7950250749312462e-09  1.8892032328190039e-06  7.7017251734899260e-07  1.6624299387812612e-06  1.5092923759667690e-06  3.3025379489809770e-06  3.8950862010279843e-07  3.9254966300706274e-09  1.0149650108212763e-07  4.8945302555125621e