<?xml version="1.0"?>
<VTKFile type="UnstructuredGrid"  version="0.1"  >
<UnstructuredGrid>
<Piece  NumberOfPoints="15540" NumberOfCells="30546">
<Points>
<DataArray  type="Float64"  NumberOfComponents="3"  format="ascii">0 0 0  -0.5 -0.5 0  0.5 -0.5 0  0.5 0 0  0.5 0.5 0  -0.5 0.5 0  -0.5 0.0001 0  -0.5 -0.0001 0  0.5 0.1 0  0.5 -0.1 0  -0.5 -0.1 0  -0.5 0.1 0  -0.4900000000000277 -0.5 0  -0.4800000000000555 -0.5 0  -0.4700000000000832 -0.5 0  -0.4600000000001109 -0.5 0  -0.4500000000001387 -0.5 0  -0.4400000000001664 -0.5 0  -0.4300000000001942 -0.5 0  -0.4200000000002219 -0.5 0  -0.4100000000002497 -0.5 0  -0.4000000000002774 -0.5 0  -0.3900000000003052 -0.5 0  -0.3800000000003328 -0.5 0  -0.3700000000003606 -0.5 0  -0.3600000000003883 -0.5 0  -0.3500000000004161 -0.5 0  -0.3400000000004438 -0.5 0  -0.3300000000004716 -0.5 0  -0.3200000000004993 -0.5 0  -0.3100000000005271 -0.5 0  -0.3000000000005548 -0.5 0  -0.2900000000005825 -0.5 0  -0.2800000000006103 -0.5 0  -0.2700000000006381 -0.5 0  -0.2600000000006658 -0.5 0  -0.2500000000006935 -0.5 0  -0.2400000000007212 -0.5 0  -0.230000000000749 -0.5 0  -0.2200000000007767 -0.5 0  -0.2100000000008044 -0.5 0  -0.2000000000008322 -0.5 0  -0.19000000000086 -0.5 0  -0.1800000000008877 -0.5 0  -0.1700000000009154 -0.5 0  -0.1600000000009431 -0.5 0  -0.1500000000009709 -0.5 0  -0.1400000000009986 -0.5 0  -0.1300000000010264 -0.5 0  -0.1200000000010541 -0.5 0  -0.1100000000010818 -0.5 0  -0.1000000000011096 -0.5 0  -0.09000000000113734 -0.5 0  -0.08000000000116503 -0.5 0  -0.07000000000119283 -0.5 0  -0.06000000000122058 -0.5 0  -0.05000000000124827 -0.5 0  -0.04000000000127607 -0.5 0  -0.03000000000130376 -0.5 0  -0.02000000000133151 -0.5 0  -0.01000000000135925 -0.5 0  -1.376121439022882e-12 -0.5 0  0.009999999998640763 -0.5 0  0.01999999999866864 -0.5 0  0.02999999999869629 -0.5 0  0.03999999999872406 -0.5 0  0.04999999999875182 -0.5 0  0.05999999999877947 -0.5 0  0.06999999999880724 -0.5 0  0.079999999998835 -0.5 0  0.08999999999886266 -0.5 0  0.09999999999889042 -0.5 0  0.1099999999989182 -0.5 0  0.1199999999989459 -0.5 0  0.1299999999989737 -0.5 0  0.1399999999990014 -0.5 0  0.1499999999990291 -0.5 0  0.1599999999990568 -0.5 0  0.1699999999990847 -0.5 0  0.1799999999991124 -0.5 0  0.1899999999991401 -0.5 0  0.1999999999991678 -0.5 0  0.2099999999991955 -0.5 0  0.2199999999992234 -0.5 0  0.2299999999992511 -0.5 0  0.2399999999992788 -0.5 0  0.2499999999993066 -0.5 0  0.2599999999993342 -0.5 0  0.269999999999362 -0.5 0  0.2799999999993897 -0.5 0  0.2899999999994175 -0.5 0  0.2999999999994452 -0.5 0  0.3099999999994729 -0.5 0  0.3199999999995007 -0.5 0  0.3299999999995284 -0.5 0  0.3399999999995562 -0.5 0  0.3499999999995839 -0.5 0  0.3599999999996116 -0.5 0  0.3699999999996393 -0.5 0  0.379999999999667 -0.5 0  0.3899999999996949 -0.5 0  0.3999999999997226 -0.5 0  0.4099999999997503 -0.5 0  0.419999999999778 -0.5 0  0.4299999999998058 -0.5 0  0.4399999999998336 -0.5 0  0.4499999999998613 -0.5 0  0.4599999999998891 -0.5 0  0.4699999999999167 -0.5 0  0.4799999999999445 -0.5 0  0.4899999999999722 -0.5 0  0.5 -0.4902110204681464 0  0.5 -0.4804459958734807 0  0.5 -0.4707048677450883 0  0.5 -0.4609875815766065 0  0.5 -0.4512940759251849 0  0.5 -0.4416242912883993 0  0.5 -0.4319781678689807 0  0.5 -0.4223556545383647 0  0.5 -0.4127566896324213 0  0.5 -0.4031812128200121 0  0.5 -0.3936291733057916 0  0.5 -0.3841005081172659 0  0.5 -0.3745951585781932 0  0.5 -0.3651130778999337 0  0.5 -0.3556541993788045 0  0.5 -0.3462184677228392 0  0.5 -0.3368058273705318 0  0.5 -0.3274162224888609 0  0.5 -0.3180495969712945 0  0.5 -0.3087058944357755 0  0.5 -0.299385058222682 0  0.5 -0.2900870313927414 0  0.5 -0.2808117567250807 0  0.5 -0.2715591844628491 0  0.5 -0.2623292564012653 0  0.5 -0.253121909553727 0  0.5 -0.2439371050851549 0  0.5 -0.2347747685524501 0  0.5 -0.2256348634421331 0  0.5 -0.2165173209784076 0  0.5 -0.207422087829958 0  0.5 -0.1983491207029381 0  0.5 -0.1892983550950482 0  0.5 -0.1802697378305253 0  0.5 -0.1712632154965152 0  0.5 -0.1622787344187354 0  0.5 -0.1533162406595534 0  0.5 -0.1443756800160514 0  0.5 -0.1354569980180493 0  0.5 -0.1265601399261414 0  0.5 -0.1176850622761093 0  0.5 -0.1088317009011999 0  0.5 -0.09166666666668973 0  0.5 -0.08333333333337943 0  0.5 -0.07500000000006915 0  0.5 -0.06666666666675886 0  0.5 -0.05833333333344858 0  0.5 -0.05000000000013693 0  0.5 -0.04166666666678191 0  0.5 -0.03333333333342643 0  0.5 -0.02500000000006916 0  0.5 -0.01666666666671188 0  0.5 -0.00833333333335548 0  0.5 0.008333333333318314 0  0.5 0.01666666666663358 0  0.5 0.02499999999994162 0  0.5 0.03333333333325101 0  0.5 0.04166666666655769 0  0.5 0.04999999999986843 0  0.5 0.05833333333322258 0  0.5 0.06666666666657715 0  0.5 0.07499999999993352 0  0.5 0.08333333333328992 0  0.5 0.09166666666664541 0  0.5 0.1088317009011616 0  0.5 0.1176850622760307 0  0.5 0.1265601399260203 0  0.5 0.1354569980178909 0  0.5 0.1443756800158549 0  0.5 0.153316240659315 0  0.5 0.1622787344184454 0  0.5 0.1712632154961752 0  0.5 0.1802697378301332 0  0.5 0.1892983550946039 0  0.5 0.1983491207024433 0  0.5 0.2074220878294123 0  0.5 0.216517320977811 0  0.5 0.2256348634414833 0  0.5 0.2347747685517479 0  0.5 0.2439371050844009 0  0.5 0.2531219095529224 0  0.5 0.2623292564004089 0  0.5 0.2715591844619371 0  0.5 0.2808117567241139 0  0.5 0.290087031391723 0  0.5 0.2993850582216101 0  0.5 0.3087058944347426 0  0.5 0.3180495969703129 0  0.5 0.3274162224879299 0  0.5 0.3368058273696494 0  0.5 0.3462184677220051 0  0.5 0.3556541993780186 0  0.5 0.3651130778991989 0  0.5 0.3745951585775107 0  0.5 0.3841005081166359 0  0.5 0.3936291733052134 0  0.5 0.4031812128194852 0  0.5 0.412756689631945 0  0.5 0.4223556545379392 0  0.5 0.431978167868607 0  0.5 0.4416242912880781 0  0.5 0.4512940759249164 0  0.5 0.4609875815763912 0  0.5 0.4707048677449264 0  0.5 0.4804459958733726 0  0.5 0.4902110204680924 0  0.4900000000000277 0.5 0  0.4800000000000555 0.5 0  0.4700000000000832 0.5 0  0.4600000000001109 0.5 0  0.4500000000001387 0.5 0  0.4400000000001664 0.5 0  0.4300000000001942 0.5 0  0.4200000000002219 0.5 0  0.4100000000002497 0.5 0  0.4000000000002774 0.5 0  0.3900000000003052 0.5 0  0.3800000000003328 0.5 0  0.3700000000003606 0.5 0  0.3600000000003883 0.5 0  0.3500000000004161 0.5 0  0.3400000000004438 0.5 0  0.3300000000004716 0.5 0  0.3200000000004993 0.5 0  0.3100000000005271 0.5 0  0.3000000000005548 0.5 0  0.2900000000005825 0.5 0  0.2800000000006103 0.5 0  0.2700000000006381 0.5 0  0.2600000000006658 0.5 0  0.2500000000006935 0.5 0  0.2400000000007212 0.5 0  0.230000000000749 0.5 0  0.2200000000007767 0.5 0  0.2100000000008044 0.5 0  0.2000000000008322 0.5 0  0.19000000000086 0.5 0  0.1800000000008877 0.5 0  0.1700000000009154 0.5 0  0.1600000000009431 0.5 0  0.1500000000009709 0.5 0  0.1400000000009986 0.5 0  0.1300000000010264 0.5 0  0.1200000000010541 0.5 0  0.1100000000010818 0.5 0  0.1000000000011096 0.5 0  0.09000000000113734 0.5 0  0.08000000000116503 0.5 0  0.07000000000119283 0.5 0  0.06000000000122058 0.5 0  0.05000000000124827 0.5 0  0.04000000000127607 0.5 0  0.03000000000130376 0.5 0  0.02000000000133151 0.5 0  0.01000000000135925 0.5 0  1.376121439022882e-12 0.5 0  -0.009999999998640763 0.5 0  -0.01999999999866864 0.5 0  -0.02999999999869629 0.5 0  -0.03999999999872406 0.5 0  -0.04999999999875182 0.5 0  -0.05999999999877947 0.5 0  -0.06999999999880724 0.5 0  -0.079999999998835 0.5 0  -0.08999999999886266 0.5 0  -0.09999999999889042 0.5 0  -0.1099999999989182 0.5 0  -0.1199999999989459 0.5 0  -0.1299999999989737 0.5 0  -0.1399999999990014 0.5 0  -0.1499999999990291 0.5 0  -0.1599999999990568 0.5 0  -0.1699999999990847 0.5 0  -0.1799999999991124 0.5 0  -0.1899999999991401 0.5 0  -0.1999999999991678 0.5 0  -0.2099999999991955 0.5 0  -0.2199999999992234 0.5 0  -0.2299999999992511 0.5 0  -0.2399999999992788 0.5 0  -0.2499999999993066 0.5 0  -0.2599999999993342 0.5 0  -0.269999999999362 0.5 0  -0.2799999999993897 0.5 0  -0.2899999999994175 0.5 0  -0.2999999999994452 0.5 0  -0.3099999999994729 0.5 0  -0.3199999999995007 0.5 0  -0.3299999999995284 0.5 0  -0.3399999999995562 0.5 0  -0.3499999999995839 0.5 0  -0.3599999999996116 0.5 0  -0.3699999999996393 0.5 0  -0.379999999999667 0.5 0  -0.3899999999996949 0.5 0  -0.3999999999997226 0.5 0  -0.4099999999997503 0.5 0  -0.419999999999778 0.5 0  -0.4299999999998058 0.5 0  -0.4399999999998336 0.5 0  -0.4499999999998613 0.5 0  -0.4599999999998891 0.5 0  -0.4699999999999167 0.5 0  -0.4799999999999445 0.5 0  -0.4899999999999722 0.5 0  -0.5 0.4902110204681464 0  -0.5 0.4804459958734807 0  -0.5 0.4707048677450883 0  -0.5 0.4609875815766065 0  -0.5 0.4512940759251849 0  -0.5 0.4416242912883993 0  -0.5 0.4319781678689807 0  -0.5 0.4223556545383647 0  -0.5 0.4127566896324213 0  -0.5 0.4031812128200121 0  -0.5 0.3936291733057916 0  -0.5 0.3841005081172659 0  -0.5 0.3745951585781932 0  -0.5 0.3651130778999337 0  -0.5 0.3556541993788045 0  -0.5 0.3462184677228392 0  -0.5 0.3368058273705318 0  -0.5 0.3274162224888609 0  -0.5 0.3180495969712945 0  -0.5 0.3087058944357755 0  -0.5 0.299385058222682 0  -0.5 0.2900870313927414 0  -0.5 0.2808117567250807 0  -0.5 0.2715591844628491 0  -0.5 0.2623292564012653 0  -0.5 0.253121909553727 0  -0.5 0.2439371050851549 0  -0.5 0.2347747685524501 0  -0.5 0.2256348634421331 0  -0.5 0.2165173209784076 0  -0.5 0.207422087829958 0  -0.5 0.1983491207029381 0  -0.5 0.1892983550950482 0  -0.5 0.1802697378305253 0  -0.5 0.1712632154965152 0  -0.5 0.1622787344187354 0  -0.5 0.1533162406595534 0  -0.5 0.1443756800160514 0  -0.5 0.1354569980180493 0  -0.5 0.1265601399261414 0  -0.5 0.1176850622761093 0  -0.5 0.1088317009011999 0  -0.5 0.09167500000001694 0  -0.5 0.08335000000003931 0  -0.5 0.07502500000006167 0  -0.5 0.06670000000008947 0  -0.5 0.05837500000011001 0  -0.5 0.0500500000001328 0  -0.5 0.0417250000001127 0  -0.5 0.03340000000008944 0  -0.5 0.02507500000006573 0  -0.5 0.01675000000004653 0  -0.5 0.008425000000027341 
[...]
<PointData  Scalars="f_31"> 
<DataArray  type="Float64"  Name="f_31"  format="ascii">1.0000000000000000e+00  1.7233888067146661e-09  2.7448798054201208e-06  9.9492405624429270e-01  1.2025207585768517e-06  1.6992308975436872e-08  1.0000000000000000e+00  1.0000000000000000e+00  2.0821635657411798e-03  1.1727247578203293e-03  1.1821039823057351e-03  1.1815697144176723e-03  1.9147719515318014e-09  2.3826625133205155e-09  2.9989797705394271e-09  3.6744049038761332e-09  4.3200632749187865e-09  4.9453707218351492e-09  5.5480996713658848e-09  6.1743637063137064e-09  6.7784529304747342e-09  7.4025518892252715e-09  8.0522251139151306e-09  8.7834261749104889e-09  9.5584424263390626e-09  1.0403421245059664e-08  1.1343822065951529e-08  1.2403243869752350e-08  1.3641885638577167e-08  1.4980767347204879e-08  1.6483825150740813e-08  1.8181923328843640e-08  1.9994544775213118e-08  2.1992575706631165e-08  2.4245962660453058e-08  2.6608251928145623e-08  2.9217816896152495e-08  3.2045372389920023e-08  3.5097026226945380e-08  3.8462521238013857e-08  4.1968195928101341e-08  4.5835820428158727e-08  4.9908454111853320e-08  5.4267373056050521e-08  5.8897905501663285e-08  6.3865403009700158e-08  6.9117154668575280e-08  7.4632605537021602e-08  8.0463009653039417e-08  8.6627995031466528e-08  9.3089098375849951e-08  9.9799876514303537e-08  1.0686612590042789e-07  1.1426276823024092e-07  1.2185663666444820e-07  1.2983303991226558e-07  1.3802584494134994e-07  1.4662065621386483e-07  1.5535791881955480e-07  1.6437106157481582e-07  1.7372147832947566e-07  1.8324828768102413e-07  1.9302353443880809e-07  2.0302948371662605e-07  2.1336137214316876e-07  2.2390681574039956e-07  2.3446887436164320e-07  2.4527701607984250e-07  2.5632109775909332e-07  2.6760574874835142e-07  2.7904016227805868e-07  2.9057893862389669e-07  3.0252808474399513e-07  3.1471156904774181e-07  3.2682731703297878e-07  3.3926846086062880e-07  3.5200866989304629e-07  3.6477952508941755e-07  3.7803910531274203e-07  3.9138362859799947e-07  4.0503206731024144e-07  4.1911094901149376e-07  4.3357017926937151e-07  4.4845258562431392e-07  4.6373023028105577e-07  4.7927297816307854e-07  4.9544508712088454e-07  5.1233918084573919e-07  5.2974896279863966e-07  5.4804116485698973e-07  5.6745135708767152e-07  5.8761686022883787e-07  6.0928676474166489e-07  6.3195103990826612e-07  6.5605177410448800e-07  6.8210210102514438e-07  7.1059381170157147e-07  7.4133693482164381e-07  7.7519777075307345e-07  8.1353009895069638e-07  8.5598923343061615e-07  9.0500019412785791e-07  9.6142283447844238e-07  1.0300530281731464e-06  1.1109796541113502e-06  1.2129941021974458e-06  1.3437464214118154e-06  1.5157317337498257e-06  1.7412844855998521e-06  2.0371001781652129e-06  2.4192345673749584e-06  2.5432807792046797e-06  2.1854896789456451e-06  1.9062274505387768e-06  1.6881149648289764e-06  1.5319781539080841e-06  1.4170471925934548e-06  1.3324859358024799e-06  1.2675518398765436e-06  1.2168393162675672e-06  1.1773346402667845e-06  1.1452598061028844e-06  1.1198872026281328e-06  1.0990963105909469e-06  1.0827348992224108e-06  1.0690730332579361e-06  1.0578711632745708e-06  1.0490475324721471e-06  1.0418693226279263e-06  1.0360535899821847e-06  1.0318660675256543e-06  1.0289365770811947e-06  1.0277845695785353e-06  1.0287763619140173e-06  1.0330052724271985e-06  1.0425478825893708e-06  1.0610925876681724e-06  1.0960606030938797e-06  1.1573845523685841e-06  1.2732426449600579e-06  1.4861280652043856e-06  1.8713669714634667e-06  2.5987643637197959e-06  3.9051232754717820e-06  6.3104324569612415e-06  1.0590810625044237e-05  1.8728470705206205e-05  3.3559471062035951e-05  6.0805530966561915e-05  1.0979234653156346e-04  1.9718233418885867e-04  3.5941053810359473e-04  6.5190709747976316e-04  2.0748892684560784e-03  3.6546150515233732e-03  6.4448254849237586e-03  1.1190153385753134e-02  1.9598412020625802e-02  3.4403470993920694e-02  6.0183366862184132e-02  1.0528162451492500e-01  1.8362561793955523e-01  3.2596752067325707e-01  5.7232752874965465e-01  9.8557551132244747e-01  5.7413586233980873e-01  3.3094207688507571e-01  1.8529256049511886e-01  1.0560328901964894e-01  6.0393427961044854e-02  3.4441049648066692e-02  1.9667920673648597e-02  1.1174169523714748e-02  6.4675097681326180e-03  3.6828126511192121e-03  1.1568220146934091e-03  6.3747562538756257e-04  3.4949894896576031e-04  1.9430999556186850e-04  1.0729754132191989e-04  5.8895755050621308e-05  3.2553666662146993e-05  1.8095028500897130e-05  1.0502386323184441e-05  6.2426983552191008e-06  3.9280127724027418e-06  2.6450806041739901e-06  1.9673730949918722e-06  1.5945333767712698e-06  1.3933684809463894e-06  1.2876655460441943e-06  1.2282881082560310e-06  1.1971620447695910e-06  1.1810982586151512e-06  1.1733576467615444e-06  1.1700958431756718e-06  1.1698343022594984e-06  1.1701284131994331e-06  1.1721143465973517e-06  1.1738544848428676e-06  1.1760849733562005e-06  1.1790242028351207e-06  1.1809099725760656e-06  1.1832123042180673e-06  1.1857084565701344e-06  1.1880718107692359e-06  1.1901621294971372e-06  1.1920301037546356e-06  1.1939853477411831e-06  1.1957538113554801e-06  1.1973461034827186e-06  1.1985918435423256e-06  1.1998894326187387e-06  1.2007878553147717e-06  1.2021416277483511e-06  1.2018575686076662e-06  1.2024170270375009e-06  1.1944178337460193e-06  1.1773727742951061e-06  1.1558412834984126e-06  1.1322568754082609e-06  1.1077107130368167e-06  1.0831813433039083e-06  1.0591411917270486e-06  1.0357349198123040e-06  1.0125180870206813e-06  9.8996250871027418e-07  9.6801956311363245e-07  9.4673960063845304e-07  9.2565119455448913e-07  9.0533200824592998e-07  8.8542273086962617e-07  8.6580944039417142e-07  8.4667951645434000e-07  8.2791435046959402e-07  8.0955953086533245e-07  7.9123675061168352e-07  7.7339543258546518e-07  7.5561119387943171e-07  7.3816164263984558e-07  7.2056129454657027e-07  7.0326495759336029e-07  6.8616149205290447e-07  6.6884878694222145e-07  6.5166360123815786e-07  6.3407764385951588e-07  6.1675959277341882e-07  5.9927883694374157e-07  5.8173020336345173e-07  5.6392137129399680e-07  5.4600353031048367e-07  5.2799465121086794e-07  5.0988663433536458e-07  4.9166112450425216e-07  4.7332539622412406e-07  4.5481178883264224e-07  4.3594197434484054e-07  4.1728200069101328e-07  3.9858107312205071e-07  3.7994652063969039e-07  3.6145606150720160e-07  3.4284733266344479e-07  3.2464679779822655e-07  3.0631279237060186e-07  2.8827490358586376e-07  2.7065961350677340e-07  2.5347400172944584e-07  2.3673721799693121e-07  2.2017220269320079e-07  2.0445374190634333e-07  1.8908785393893197e-07  1.7424512112788532e-07  1.6021268960679939e-07  1.4662257647399453e-07  1.3374492027427590e-07  1.2159457262272015e-07  1.1005164353064149e-07  9.9328323441707745e-08  8.9173458929199055e-08  7.9775706912073237e-08  7.1018276563782764e-08  6.2939256151254244e-08  5.5473805438465121e-08  4.8562149328579962e-08  4.2364597897653287e-08  3.6631350694341453e-08  3.1483145205014208e-08  2.6821668412205514e-08  2.2669610200746241e-08  1.8929972516828828e-08  1.5658029455366891e-08  1.2735692085626056e-08  1.0198352260944070e-08  8.0365707692623638e-09  6.1610940660696352e-09  4.6062454514483913e-09  3.3169789188430738e-09  2.2975733488701062e-09  1.5344158072575889e-09  1.0060788489716798e-09  7.1179079086522036e-10  6.2800471491407591e-10  7.4208855293770281e-10  1.0417698610499958e-09  1.5084854290897131e-09  2.1327000413851037e-09  2.8966822612904854e-09  3.8215111829760249e-09  4.9018987666149762e-09  6.1642412343224498e-09  7.5785467934371084e-09  9.1967661948231988e-09  1.0951163998152566e-08  1.2851654571933857e-08  1.4700616240106688e-08  1.6225851476028921e-08  1.6994319801543227e-08  1.6938778895755456e-08  1.6906299838395245e-08  1.6715469670048723e-08  1.6568069949975315e-08  1.6378114601143385e-08  1.6137478885388906e-08  1.5891253080200929e-08  1.5575763839054109e-08  1.5265526077873103e-08  1.4921220311372083e-08  1.4548204963158828e-08  1.4137053808293134e-08  1.3702644395950611e-08  1.3256461940475396e-08  1.2802042098592484e-08  1.2356767569591090e-08  1.1937772988967237e-08  1.1599805920095942e-08  1.1458687112681254e-08  1.1676305597854343e-08  1.2557878292096665e-08  1.4734029434280680e-08  1.9340985463919012e-08  2.8378658048000026e-08  4.5682074830153178e-08  7.8120389221775376e-08  1.3933201400038754e-07  2.5340843905504363e-07  4.6423580563076655e-07  8.5349607622401143e-07  1.5608402843494057e-06  2.8731477638656476e-06  5.2967482597573325e-06  9.6257565287683674e-06  1.7807413917379817e-05  3.2580647074182718e-05  5.9489806578123782e-05  1.0813385658305789e-04  1.9581923555194071e-04  3.5979696851805846e-04  6.5481784659453463e-04  2.0961165119805720e-03  3.6840474825827418e-03  6.4858480912039678e-03  1.1256664963602692e-02  1.9737252565112180e-02  3.4720941323290476e-02  6.0782049344585157e-02  1.0622165162484526e-01  1.8493003603592487e-01  3.2702515526344267e-01  5.7160142369724454e-01  1.0000000000000000e+00  1.0000000000000000e+00  1.0000000000000000e+00  1.0000000000000000e+00  1.0000000000000000e+00  1.0000000000000000e+00  1.0000000000000000e+00  1.0000000000000000e+00  1.0000000000000000e+00  1.0000000000000000e+00  1.0000000000000000e+00  1.0000000000000000e+00  1.0000000000000000e+00  1.0000000000000000e+00  1.0000000000000000e+00  1.0000000000000000e+00  1.0000000000000000e+00  1.0000000000000000e+00  1.0000000000000000e+00  1.0000000000000000e+00  1.0000000000000000e+00  1.0000000000000000e+00  1.0000000000000000e+00  1.0000000000000000e+00  1.0000000000000000e+00  1.0000000000000000e+00  1.0000000000000000e+00  1.0000000000000000e+00  1.0000000000000000e+00  1.0000000000000000e+00  1.0000000000000000e+00  1.0000000000000000e+00  1.0000000000000000e+00  1.0000000000000000e+00  9.9999999999999989e-01  1.0000000000000000e+00  1.0000000000000000e+00  1.0000000000000000e+00  1.0000000000000000e+00  1.0000000000000000e+00  1.0000000000000000e+00  1.0000000000000000e+00  1.0000000000000000e+00  1.0000000000000000e+00  1.0000000000000000e+00  1.0000000000000000e+00  1.0000000000000000e+00  1.0000000000000000e+00  1.0000000000000000e+00  1.0000000000000000e+00  1.0000000000000000e+00  1.0000000000000000e+00  1.0000000000000000e+00  1.0000000000000000e+00  1.0000000000000000e+00  1.0000000000000000e+00  1.0000000000000000e+00  1.0000000000000000e+00  1.0000000000000000e+00  1.0000000000000000e+00  1.0000000000000000e+00  1.0000000000000000e+00  1.0000000000000000e+00  1.0000000000000000e+00  1.0000000000000000e+00  1.0000000000000000e+00  1.0000000000000000e+00  1.0000000000000000e+00  1.0000000000000000e+00  1.0000000000000000e+00  9.9999999999999989e-01  1.0000000000000000e+00  1.0000000000000000e+00  1.0000000000000000e+00  1.0000000000000000e+00  1.0000000000000000e+00  1.0000000000000000e+00  1.0000000000000000e+00  1.0000000000000000e+00  1.0000000000000000e+00  1.0000000000000000e+00  1.0000000000000000e+00  1.0000000000000000e+00  1.0000000000000000e+00  1.0000000000000000e+00  1.0000000000000000e+00  1.0000000000000000e+00  1.0000000000000000e+00  1.0000000000000000e+00  1.0000000000000000e+00  1.0000000000000000e+00  1.0000000000000000e+00  1.0000000000000000e+00  1.0000000000000000e+00  1.0000000000000000e+00  1.0000000000000000e+00  1.0000000000000000e+00  1.0000000000000000e+00  1.0000000000000000e+00  1.0000000000000000e+00  1.0000000000000000e+00  1.0000000000000000e+00  1.0000000000000000e+00  1.0000000000000000e+00  1.0000000000000000e+00  1.0000000000000000e+00  1.0000000000000000e+00  1.0000000000000000e+00  1.0000000000000000e+00  1.0000000000000000e+00  5.7157081540553201e-01  3.2704024578192764e-01  1.8489315725368788e-01  1.0623927488496526e-01  6.0789268504336587e-02  3.4726290635773087e-02  1.9744685375186730e-02  1.1258434720343621e-02  6.4895802964308486e-03  3.6859954596932532e-03  2.0973560410907045e-03  6.5513218264101353e-04  3.5991696774350046e-04  1.9537157958330521e-04  1.0819486388376104e-04  5.9557087935091513e-05  3.2618836548619518e-05  1.7822884307574304e-05  9.6357931142359228e-06  5.2998366231162130e-06  2.8742263774182892e-06  1.5616356211652000e-06  8.5412590169196942e-07  4.6472145382509863e-07  2.5355651778532508e-07  1.3924468678681698e-07  7.7828571545295480e-08  4.5176533680459916e-08  2.7646640170051873e-08  1.8332539833913831e-08  1.3415975978693596e-08  1.0891620287644927e-08  9.6128903940847516e-09  8.9535483503502012e-09  8.5969118462784350e-09  8.3838563847289982e-09  8.2102607253108855e-09  8.0249509101683575e-09  7.7891278135071585e-09  7.4982912478956638e-09  7.1649519681727018e-09  6.7644230385817289e-09  6.3100482289329452e-09  5.8082381497290409e-09  5.2595755654314001e-09  4.6965554190377210e-09  4.1466188750882341e-09  3.5843944411976858e-09  3.0315519252462100e-09  2.5398931250590050e-09  2.1099416981633008e-09  1.8947273282634489e-09  1.7516253863643444e-09  1.1789204867379481e-03  1.1823896245061717e-03  1.1825378468121016e-03  1.1783922462832580e-03  1.1725500813237783e-03  1.1865521009705234e-03  1.1823446492096419e-03  1.1649287673826086e-03  1.1761303272431801e-03  1.1877959860108242e-03  1.1644085782576074e-03  1.1772143894345658e-03  1.1866796361438945e-03  1.1848101981848532e-03  1.1827275843157231e-03  1.1728084649278670e-03  1.1708288864342223e-03  1.1599255743960279e-03  1.1781976289151725e-03  1.1818609100263779e-03  1.1710668556875676e-03  1.1707879567735861e-03  1.1852158361105745e-03  1.1857321110731508e-03  1.1735560490078356e-03  1.1765846737840768e-03  1.1783774519465750e-03  1.1720846054353027e-03  1.1845681123315230e-03  1.1781995219420035e-03  1.1702468485533205e-03  1.1758002473443651e-03  1.1763656835751702e-03  1.1653858086924302e-03  1.1765437958748718e-03  1.1925438957838630e-03  1.1657456041975173e-03  1.1823811810867202e-03  1.1817498961134694e-03  1.1674914387945375e-03  1.1922188415081367e-03  1.1867568901705106e-03  1.1722682050071557e-03  1.1877548310366805e-03  1.1776422078885482e-03  1.1860636061966736e-03  1.2155634151079760e-03  1.2378269725589943e-03  1.2542055809421106e-03  1.3073093389635389e-03  1.3635171108462598e-03  1.4195126127034940e-03  1.5295780113728735e-03  1.6180861765001694e-03  1.7097952510257120e-03  1.8245719140207910e-03  1.9017292636891098e-03  1.9486020990119501e-03  2.0431471944851831e-03  2.0703406298818584e-03  2.0793332120097575e-03  2.1043349759122428e-03  2.0666510863957543e-03  2.0825076321275295e-03  2.0818027687708666e-03  2.0761803385088025e-03  2.0538042777530751e-03  2.0163758967789774e-03  2.0444205833423609e-03  2.0489212981624600e-03  2.0363418581747280e-03  2.0205251519775009e-03  2.0229775005398934e-03  2.0168953439561538e-03  1.9836725216192631e-03  2.0002101126328576e-03  1.9892987157455726e-03  1.9695489769276258e-03  1.9886301698893117e-03  1.9764404687903766e-03  1.9623082452755220e-03  1.9858648105747535e-03  1.9957737234573307e-03  1.9756566529693133e-03  1.9687083968263066e-03  2.0181821471585257e-03  2.0116732056434617e-03  2.0136399237496985e-03  2.0137556987538450e-03  1.9874596791151270e-03  2.0097779936787577e-03  2.0266181119683812e-03  2.0271225253001507e-03  2.0280293492521179e-03  1.9971525202282922e-03  2.0260760891018669e-03  2.0422458834531156e-03  2.0516965288961395e-03  2.0412556147191814e-03  2.0464526518842491e-03  2.0587016181217084e-03  2.0704215731951344e-03  2.0718327380630053e-03  2.0853397477624603e-03  2.0956618598253762e-03  2.0850477719037146e-03  2.0904920184858767e-03  2.0858234450536572e-03  2.0669692987099228e-03  2.0962896125782168e-03  2.1102900817732951e-03  1.1794953697987437e-03  1.1825744509461205e-03  1.1827081578251980e-03  1.1785089477272747e-03  1.1727013932328009e-03  1.1871304890892988e-03  1.1825191731349163e-03  1.1653070267724800e-03  1.1759464407839458e-03  1.1871416506805863e-03  1.1659242493133517e-03  1.1762302418544168e-03  1.1856519621772851e-03  1.1836513082050118e-03  1.1814982631406770e-03  1.1721851814718706e-03  1.1690813278577487e-03  1.1560852433770985e-03  1.1758514456386537e-03  1.1836950595449818e-03  1.1735518261829694e-03  1.1746545496875689e-03  1.1869495136147439e-03  1.1876850448188671e-03  1.1745472094339038e-03  1.1772745301210266e-03  1.1795160491078645e-03  1.1732253747738074e-03  1.1848458476530163e-03  1.1787050137515246e-03  1.1700870464969495e-03  1.1742569922956086e-03  1.1733525148326877e-03  1.1623197407170981e-03  1.1733670467344963e-03  1.1899299468037139e-03  1.1625893786979776e-03  1.1791156175476024e-03  1.1773936399748948e-03  1.1627047976668166e-03  1.1881376600799817e-03  1.1816224102126505e-03  1.1669659129527762e-03  1.1812398966405744e-03  1.1665872002430944e-03  1.1665055464813404e-03  1.1815091198499560e-03  1.1826969266137781e-03  1.1675907859551068e-03  1.1770020216468008e-03  1.1772516853264677e-03  1.1600245384944610e-03  1.1784313093999577e-03  1.1754975690901977e-03  1.1680405114647338e-03  1.1772179917827960e-03  1.1732736190998086e-03  1.1577597282479367e-03  1.1795911778732611e-03  1.1751507814148807e-03  1.1676606488130589e-03  1.1773584671734198e-03  1.1560385511873031e-03  1.1666811788864843e-03  1.1694241151515164e-03  1.1695805971655114e-03  1.1606685300168489e-03  1.1439117243928377e-03  1.1647218529119809e-03  1.1733552472043861e-03  1.1719441784266769e-03  1.1664746377738351e-03  1.1742477047142767e-03  1.1763858543582283e-03  1.1627285575465168e-03  1.1779112951961377e-03  1.1764650358735511e-03  1.1684494906014484e-03  1.1816733198354449e-03  1.1740742410990203e-03  1.1630755572057461e-03  1.1731543819716035e-03  1.1741971654237501e-03  1.1598430325352350e-03  1.1492603502768792e-03  1.1737764372591851e-03  1.1673292968153372e-03  1.1677959163065477e-03  1.1690048982461940e-03  1.1552659790764416e-03  1.1688891519818045e-03  1.1786363887286819e-03  1.1765965068607719e-03  1.1727088307683636e-03  1.1510157162682323e-03  1.1650947883824034e-03  1.1724803946541900e-03  1.1766584149310005e-03  1.1680978856585932e-03  1.1678024465619199e-03  1.1701814481740898e-03  1.1723529891609730e-03  1.1699381810013369e-03  1.1750340145594842e-03  1.1795461876812465e-03  1.1735757048664610e-03  1.1756048306277062e-03  1.1735370694284195e-03  1.1622847781588579e-03  1.1797415219086769e-03  1.1893776370982721e-03  9.9231280156876567e-01  9.9773605287954481e-01  9.9356947097569748e-01  9.9503104682312837e-01  9.9574429345605464e-01  9.9516765350942327e-01  9.9562420378207950e-01  9.9600729703476709e-01  9.9488305626625506e-01  9.9537080373073572e-01  9.9401649857039998e-01  9.9715291702246267e-01  9.9447403701531900e-01  9.9619524450347574e-01  9.9563774273054273e-01  9.9613158075577379e-01  9.9595015708240742e-01  9.9587191955074672e-01  9.9613548938217544e-01  9.9611443352170193e-01  9.9620947108677393e-01  9.9631112925549681e-01  9.9636283490508404e-01  9.9665714295293539e-01  9.9666331017168053e-01  9.9488412116688896e-01  9.9824132368724516e-01  9.9535342233106883e-01  9.9678623257925902e-01  9.9561068958382115e-01  9.9490221206863183e-01  9.9497408991075498e-01  9.9568960036305854e-01  9.9678341600823073e-01  9.9532403333599073e-01  9.9841932854072668e-01  9.9496750693499891e-01  9.9497060840173834e-01  9.9799530754430443e-01  9.9443243539187620e-01  9.9534233634346514e-01  9.9508959268024821e-01  9.9626825602426095e-01  9.9589551376313523e-01  9.9547239872426574e-01  9.9555821079110174e-01  9.9468967294940458e-01  9.9539181629320372e-01  9.9588022370856466e-01  9.9526863387023701e-01  9.9588169289815720e-01  9.9523303647503625e-01  9.9592887081679626e-01  9.9414961681617020e-01  9.9654130240378302e-01  1.2833321717410027e-07  5.5656562081449187e-09  5.3396893167096619e-07  7.9367782271670310e-07  8.4684092591768852e-07  3.1208609728296476e-07  3.5129493605725903e-07  1.2673577672200138e-06  6.5144880632677328e-07  2.9416100103718947e-07  3.3412867209275931e-08  2.2080559197243395e-09  2.0484615623625594e-06  9.4473872963860770e-07  1.6844574068181720e-06  1.5099428409865949e-06  3.4192196507596460e-06  4.7725004180554284e-07  4.7855857337295097e-09  1.2410331153771245e-07  5.0332186847732860e