<?xml version="1.0"?>
<VTKFile type="UnstructuredGrid"  version="0.1"  >
<UnstructuredGrid>
<Piece  NumberOfPoints="15540" NumberOfCells="30546">
<Points>
<DataArray  type="Float64"  NumberOfComponents="3"  format="ascii">0 0 0  -0.5 -0.5 0  0.5 -0.5 0  0.5 0 0  0.5 0.5 0  -0.5 0.5 0  -0.5 0.0001 0  -0.5 -0.0001 0  0.5 0.1 0  0.5 -0.1 0  -0.5 -0.1 0  -0.5 0.1 0  -0.4900000000000277 -0.5 0  -0.4800000000000555 -0.5 0  -0.4700000000000832 -0.5 0  -0.4600000000001109 -0.5 0  -0.4500000000001387 -0.5 0  -0.4400000000001664 -0.5 0  -0.4300000000001942 -0.5 0  -0.4200000000002219 -0.5 0  -0.4100000000002497 -0.5 0  -0.4000000000002774 -0.5 0  -0.3900000000003052 -0.5 0  -0.3800000000003328 -0.5 0  -0.3700000000003606 -0.5 0  -0.3600000000003883 -0.5 0  -0.3500000000004161 -0.5 0  -0.3400000000004438 -0.5 0  -0.3300000000004716 -0.5 0  -0.3200000000004993 -0.5 0  -0.3100000000005271 -0.5 0  -0.3000000000005548 -0.5 0  -0.2900000000005825 -0.5 0  -0.2800000000006103 -0.5 0  -0.2700000000006381 -0.5 0  -0.2600000000006658 -0.5 0  -0.2500000000006935 -0.5 0  -0.2400000000007212 -0.5 0  -0.230000000000749 -0.5 0  -0.2200000000007767 -0.5 0  -0.2100000000008044 -0.5 0  -0.2000000000008322 -0.5 0  -0.19000000000086 -0.5 0  -0.1800000000008877 -0.5 0  -0.1700000000009154 -0.5 0  -0.1600000000009431 -0.5 0  -0.1500000000009709 -0.5 0  -0.1400000000009986 -0.5 0  -0.1300000000010264 -0.5 0  -0.1200000000010541 -0.5 0  -0.1100000000010818 -0.5 0  -0.1000000000011096 -0.5 0  -0.09000000000113734 -0.5 0  -0.08000000000116503 -0.5 0  -0.07000000000119283 -0.5 0  -0.06000000000122058 -0.5 0  -0.05000000000124827 -0.5 0  -0.04000000000127607 -0.5 0  -0.03000000000130376 -0.5 0  -0.02000000000133151 -0.5 0  -0.01000000000135925 -0.5 0  -1.376121439022882e-12 -0.5 0  0.009999999998640763 -0.5 0  0.01999999999866864 -0.5 0  0.02999999999869629 -0.5 0  0.03999999999872406 -0.5 0  0.04999999999875182 -0.5 0  0.05999999999877947 -0.5 0  0.06999999999880724 -0.5 0  0.079999999998835 -0.5 0  0.08999999999886266 -0.5 0  0.09999999999889042 -0.5 0  0.1099999999989182 -0.5 0  0.1199999999989459 -0.5 0  0.1299999999989737 -0.5 0  0.1399999999990014 -0.5 0  0.1499999999990291 -0.5 0  0.1599999999990568 -0.5 0  0.1699999999990847 -0.5 0  0.1799999999991124 -0.5 0  0.1899999999991401 -0.5 0  0.1999999999991678 -0.5 0  0.2099999999991955 -0.5 0  0.2199999999992234 -0.5 0  0.2299999999992511 -0.5 0  0.2399999999992788 -0.5 0  0.2499999999993066 -0.5 0  0.2599999999993342 -0.5 0  0.269999999999362 -0.5 0  0.2799999999993897 -0.5 0  0.2899999999994175 -0.5 0  0.2999999999994452 -0.5 0  0.3099999999994729 -0.5 0  0.3199999999995007 -0.5 0  0.3299999999995284 -0.5 0  0.3399999999995562 -0.5 0  0.3499999999995839 -0.5 0  0.3599999999996116 -0.5 0  0.3699999999996393 -0.5 0  0.379999999999667 -0.5 0  0.3899999999996949 -0.5 0  0.3999999999997226 -0.5 0  0.4099999999997503 -0.5 0  0.419999999999778 -0.5 0  0.4299999999998058 -0.5 0  0.4399999999998336 -0.5 0  0.4499999999998613 -0.5 0  0.4599999999998891 -0.5 0  0.4699999999999167 -0.5 0  0.4799999999999445 -0.5 0  0.4899999999999722 -0.5 0  0.5 -0.4902110204681464 0  0.5 -0.4804459958734807 0  0.5 -0.4707048677450883 0  0.5 -0.4609875815766065 0  0.5 -0.4512940759251849 0  0.5 -0.4416242912883993 0  0.5 -0.4319781678689807 0  0.5 -0.4223556545383647 0  0.5 -0.4127566896324213 0  0.5 -0.4031812128200121 0  0.5 -0.3936291733057916 0  0.5 -0.3841005081172659 0  0.5 -0.3745951585781932 0  0.5 -0.3651130778999337 0  0.5 -0.3556541993788045 0  0.5 -0.3462184677228392 0  0.5 -0.3368058273705318 0  0.5 -0.3274162224888609 0  0.5 -0.3180495969712945 0  0.5 -0.3087058944357755 0  0.5 -0.299385058222682 0  0.5 -0.2900870313927414 0  0.5 -0.2808117567250807 0  0.5 -0.2715591844628491 0  0.5 -0.2623292564012653 0  0.5 -0.253121909553727 0  0.5 -0.2439371050851549 0  0.5 -0.2347747685524501 0  0.5 -0.2256348634421331 0  0.5 -0.2165173209784076 0  0.5 -0.207422087829958 0  0.5 -0.1983491207029381 0  0.5 -0.1892983550950482 0  0.5 -0.1802697378305253 0  0.5 -0.1712632154965152 0  0.5 -0.1622787344187354 0  0.5 -0.1533162406595534 0  0.5 -0.1443756800160514 0  0.5 -0.1354569980180493 0  0.5 -0.1265601399261414 0  0.5 -0.1176850622761093 0  0.5 -0.1088317009011999 0  0.5 -0.09166666666668973 0  0.5 -0.08333333333337943 0  0.5 -0.07500000000006915 0  0.5 -0.06666666666675886 0  0.5 -0.05833333333344858 0  0.5 -0.05000000000013693 0  0.5 -0.04166666666678191 0  0.5 -0.03333333333342643 0  0.5 -0.02500000000006916 0  0.5 -0.01666666666671188 0  0.5 -0.00833333333335548 0  0.5 0.008333333333318314 0  0.5 0.01666666666663358 0  0.5 0.02499999999994162 0  0.5 0.03333333333325101 0  0.5 0.04166666666655769 0  0.5 0.04999999999986843 0  0.5 0.05833333333322258 0  0.5 0.06666666666657715 0  0.5 0.07499999999993352 0  0.5 0.08333333333328992 0  0.5 0.09166666666664541 0  0.5 0.1088317009011616 0  0.5 0.1176850622760307 0  0.5 0.1265601399260203 0  0.5 0.1354569980178909 0  0.5 0.1443756800158549 0  0.5 0.153316240659315 0  0.5 0.1622787344184454 0  0.5 0.1712632154961752 0  0.5 0.1802697378301332 0  0.5 0.1892983550946039 0  0.5 0.1983491207024433 0  0.5 0.2074220878294123 0  0.5 0.216517320977811 0  0.5 0.2256348634414833 0  0.5 0.2347747685517479 0  0.5 0.2439371050844009 0  0.5 0.2531219095529224 0  0.5 0.2623292564004089 0  0.5 0.2715591844619371 0  0.5 0.2808117567241139 0  0.5 0.290087031391723 0  0.5 0.2993850582216101 0  0.5 0.3087058944347426 0  0.5 0.3180495969703129 0  0.5 0.3274162224879299 0  0.5 0.3368058273696494 0  0.5 0.3462184677220051 0  0.5 0.3556541993780186 0  0.5 0.3651130778991989 0  0.5 0.3745951585775107 0  0.5 0.3841005081166359 0  0.5 0.3936291733052134 0  0.5 0.4031812128194852 0  0.5 0.412756689631945 0  0.5 0.4223556545379392 0  0.5 0.431978167868607 0  0.5 0.4416242912880781 0  0.5 0.4512940759249164 0  0.5 0.4609875815763912 0  0.5 0.4707048677449264 0  0.5 0.4804459958733726 0  0.5 0.4902110204680924 0  0.4900000000000277 0.5 0  0.4800000000000555 0.5 0  0.4700000000000832 0.5 0  0.4600000000001109 0.5 0  0.4500000000001387 0.5 0  0.4400000000001664 0.5 0  0.4300000000001942 0.5 0  0.4200000000002219 0.5 0  0.4100000000002497 0.5 0  0.4000000000002774 0.5 0  0.3900000000003052 0.5 0  0.3800000000003328 0.5 0  0.3700000000003606 0.5 0  0.3600000000003883 0.5 0  0.3500000000004161 0.5 0  0.3400000000004438 0.5 0  0.3300000000004716 0.5 0  0.3200000000004993 0.5 0  0.3100000000005271 0.5 0  0.3000000000005548 0.5 0  0.2900000000005825 0.5 0  0.2800000000006103 0.5 0  0.2700000000006381 0.5 0  0.2600000000006658 0.5 0  0.2500000000006935 0.5 0  0.2400000000007212 0.5 0  0.230000000000749 0.5 0  0.2200000000007767 0.5 0  0.2100000000008044 0.5 0  0.2000000000008322 0.5 0  0.19000000000086 0.5 0  0.1800000000008877 0.5 0  0.1700000000009154 0.5 0  0.1600000000009431 0.5 0  0.1500000000009709 0.5 0  0.1400000000009986 0.5 0  0.1300000000010264 0.5 0  0.1200000000010541 0.5 0  0.1100000000010818 0.5 0  0.1000000000011096 0.5 0  0.09000000000113734 0.5 0  0.08000000000116503 0.5 0  0.07000000000119283 0.5 0  0.06000000000122058 0.5 0  0.05000000000124827 0.5 0  0.04000000000127607 0.5 0  0.03000000000130376 0.5 0  0.02000000000133151 0.5 0  0.01000000000135925 0.5 0  1.376121439022882e-12 0.5 0  -0.009999999998640763 0.5 0  -0.01999999999866864 0.5 0  -0.02999999999869629 0.5 0  -0.03999999999872406 0.5 0  -0.04999999999875182 0.5 0  -0.05999999999877947 0.5 0  -0.06999999999880724 0.5 0  -0.079999999998835 0.5 0  -0.08999999999886266 0.5 0  -0.09999999999889042 0.5 0  -0.1099999999989182 0.5 0  -0.1199999999989459 0.5 0  -0.1299999999989737 0.5 0  -0.1399999999990014 0.5 0  -0.1499999999990291 0.5 0  -0.1599999999990568 0.5 0  -0.1699999999990847 0.5 0  -0.1799999999991124 0.5 0  -0.1899999999991401 0.5 0  -0.1999999999991678 0.5 0  -0.2099999999991955 0.5 0  -0.2199999999992234 0.5 0  -0.2299999999992511 0.5 0  -0.2399999999992788 0.5 0  -0.2499999999993066 0.5 0  -0.2599999999993342 0.5 0  -0.269999999999362 0.5 0  -0.2799999999993897 0.5 0  -0.2899999999994175 0.5 0  -0.2999999999994452 0.5 0  -0.3099999999994729 0.5 0  -0.3199999999995007 0.5 0  -0.3299999999995284 0.5 0  -0.3399999999995562 0.5 0  -0.3499999999995839 0.5 0  -0.3599999999996116 0.5 0  -0.3699999999996393 0.5 0  -0.379999999999667 0.5 0  -0.3899999999996949 0.5 0  -0.3999999999997226 0.5 0  -0.4099999999997503 0.5 0  -0.419999999999778 0.5 0  -0.4299999999998058 0.5 0  -0.4399999999998336 0.5 0  -0.4499999999998613 0.5 0  -0.4599999999998891 0.5 0  -0.4699999999999167 0.5 0  -0.4799999999999445 0.5 0  -0.4899999999999722 0.5 0  -0.5 0.4902110204681464 0  -0.5 0.4804459958734807 0  -0.5 0.4707048677450883 0  -0.5 0.4609875815766065 0  -0.5 0.4512940759251849 0  -0.5 0.4416242912883993 0  -0.5 0.4319781678689807 0  -0.5 0.4223556545383647 0  -0.5 0.4127566896324213 0  -0.5 0.4031812128200121 0  -0.5 0.3936291733057916 0  -0.5 0.3841005081172659 0  -0.5 0.3745951585781932 0  -0.5 0.3651130778999337 0  -0.5 0.3556541993788045 0  -0.5 0.3462184677228392 0  -0.5 0.3368058273705318 0  -0.5 0.3274162224888609 0  -0.5 0.3180495969712945 0  -0.5 0.3087058944357755 0  -0.5 0.299385058222682 0  -0.5 0.2900870313927414 0  -0.5 0.2808117567250807 0  -0.5 0.2715591844628491 0  -0.5 0.2623292564012653 0  -0.5 0.253121909553727 0  -0.5 0.2439371050851549 0  -0.5 0.2347747685524501 0  -0.5 0.2256348634421331 0  -0.5 0.2165173209784076 0  -0.5 0.207422087829958 0  -0.5 0.1983491207029381 0  -0.5 0.1892983550950482 0  -0.5 0.1802697378305253 0  -0.5 0.1712632154965152 0  -0.5 0.1622787344187354 0  -0.5 0.1533162406595534 0  -0.5 0.1443756800160514 0  -0.5 0.1354569980180493 0  -0.5 0.1265601399261414 0  -0.5 0.1176850622761093 0  -0.5 0.1088317009011999 0  -0.5 0.09167500000001694 0  -0.5 0.08335000000003931 0  -0.5 0.07502500000006167 0  -0.5 0.06670000000008947 0  -0.5 0.05837500000011001 0  -0.5 0.0500500000001328 0  -0.5 0.0417250000001127 0  -0.5 0.03340000000008944 0  -0.5 0.02507500000006573 0  -0.5 0.01675000000004653 0  -0.5 0.008425000000027341 
[...]
<PointData  Scalars="f_25"> 
<DataArray  type="Float64"  Name="f_25"  format="ascii">1.0000000000000000e+00  1.3404547430453568e-04  1.1627918734356997e-01  1.9969324743004838e-02  4.1781209266087818e-02  7.8519687860109742e-04  1.0000000000000000e+00  1.0000000000000000e+00  2.2703558869471563e-02  2.1017255091716151e-02  1.2040781760628658e-03  1.2005057986113621e-03  1.3292669782512956e-04  1.5067399048151502e-04  1.8307805881661899e-04  2.2126755528797053e-04  2.5965969943428721e-04  2.9758246230637527e-04  3.3441161178466785e-04  3.7247182104106676e-04  4.0922666560720922e-04  4.4715201020116855e-04  4.8667823147293635e-04  5.3070501886103342e-04  5.7690686532255956e-04  6.2639858017284782e-04  6.8050251966988236e-04  7.4040727699265874e-04  8.0937233265009295e-04  8.8307551464217391e-04  9.6488139111838877e-04  1.0564628000818306e-03  1.1534310737220392e-03  1.2595234200989910e-03  1.3783826973902626e-03  1.5022756386324455e-03  1.6383997412121438e-03  1.7851534376965737e-03  1.9427931693290516e-03  2.1158891098102721e-03  2.2953048691296699e-03  2.4925558852265509e-03  2.6993423419277621e-03  2.9197681007482055e-03  3.1530148038720336e-03  3.4022052647897372e-03  3.6644732805893639e-03  3.9388142177645379e-03  4.2276275720579057e-03  4.5315688359105627e-03  4.8487442644168230e-03  5.1765846303542919e-03  5.5202755512411255e-03  5.8779502405362375e-03  6.2432877259535734e-03  6.6246674774422757e-03  7.0149002973544953e-03  7.4213609996079868e-03  7.8331551294721323e-03  8.2539464152822737e-03  8.6873421031328380e-03  9.1262508691635404e-03  9.5741887102927855e-03  1.0027961816912529e-02  1.0491957058065798e-02  1.0964202734602104e-02  1.1431090216167842e-02  1.1903117919900147e-02  1.2383415190952225e-02  1.2869008476055625e-02  1.3355077131432821e-02  1.3838979515599762e-02  1.4335227748884599e-02  1.4838346623709616e-02  1.5328055897841907e-02  1.5827193257208168e-02  1.6333987027240184e-02  1.6829340270402806e-02  1.7342485925822174e-02  1.7847184817992117e-02  1.8358353750019485e-02  1.8881213231478951e-02  1.9411591683801958e-02  1.9950052080906826e-02  2.0498788588000576e-02  2.1047157076411204e-02  2.1616107716039348e-02  2.2207985954536470e-02  2.2809710764882935e-02  2.3443531787396547e-02  2.4116999922201659e-02  2.4815479858498836e-02  2.5570909530272811e-02  2.6363896057305800e-02  2.7215053727920872e-02  2.8146285560378920e-02  2.9178050469825217e-02  3.0308791738089889e-02  3.1577656508761480e-02  3.3042633020814158e-02  3.4698185426825477e-02  3.6650197397245010e-02  3.8951735350005873e-02  4.1797565158107723e-02  4.5218558833888770e-02  4.9602064875669823e-02  5.5312672005686563e-02  6.2834791786778213e-02  7.2756089754397582e-02  8.5684930997994874e-02  1.0224992759939663e-01  1.0677390923657089e-01  8.9874600901915097e-02  7.6342853681467399e-02  6.5771897163242235e-02  5.8148896280033724e-02  5.2516548620044630e-02  4.8329448096630499e-02  4.5101997131560718e-02  4.2549929715067873e-02  4.0509363697716218e-02  3.8800981167150639e-02  3.7388170042301709e-02  3.6172186500053639e-02  3.5147133669462163e-02  3.4223217094615829e-02  3.3388696397222792e-02  3.2661628766094235e-02  3.1977146901558826e-02  3.1326936683014027e-02  3.0735274687585985e-02  3.0141082424630261e-02  2.9603511975715351e-02  2.9064374304216975e-02  2.8540388904750521e-02  2.8034168507947762e-02  2.7547249068890931e-02  2.7079421187681970e-02  2.6607316969405513e-02  2.6160088383956663e-02  2.5697806660872468e-02  2.5251718427004174e-02  2.4816553419214221e-02  2.4397449866020503e-02  2.3996918546914988e-02  2.3594553104135468e-02  2.3218555084170818e-02  2.2849011529932427e-02  2.2496906703624371e-02  2.2162082260940293e-02  2.1831508000502108e-02  2.1554299139995244e-02  2.1283024521628550e-02  2.0807945871867684e-02  2.0612447683698853e-02  2.0436872076118513e-02  2.0294767996451184e-02  2.0162405878495646e-02  2.0054696790114582e-02  1.9984091889427198e-02  1.9929843682894553e-02  1.9885203734387319e-02  1.9902507350247196e-02  1.9931704719686728e-02  2.0064896485361715e-02  2.0168325695044183e-02  2.0298693181520326e-02  2.0467196127289793e-02  2.0652679269085126e-02  2.0871502177959970e-02  2.1121018173369713e-02  2.1389816784631574e-02  2.1669373245752563e-02  2.1999980129457739e-02  2.2343097715631987e-02  2.3130414013635754e-02  2.3567767475663012e-02  2.4017150581572864e-02  2.4513739672334025e-02  2.5024139323880347e-02  2.5550517070941307e-02  2.6098946706226644e-02  2.6657339861672749e-02  2.7236489147581019e-02  2.7816094809600782e-02  2.8415264465706691e-02  2.9024379592701974e-02  2.9646038953219604e-02  3.0273006477900502e-02  3.0892412238907496e-02  3.1503729824102648e-02  3.2110442231149408e-02  3.2720901874924886e-02  3.3333042622544738e-02  3.3940902037654160e-02  3.4533576593646878e-02  3.5110063409752583e-02  3.5669664459942158e-02  3.6220256847804416e-02  3.6741215941923290e-02  3.7246641034089464e-02  3.7740664408085142e-02  3.8192165337027018e-02  3.8632324764766850e-02  3.9048617755212810e-02  3.9445927172582558e-02  3.9807642213124765e-02  4.0141693104564120e-02  4.0446862846931740e-02  4.0721847518769339e-02  4.0969102861447747e-02  4.1179199161706946e-02  4.1366832833319163e-02  4.1516035796640434e-02  4.1648944967388760e-02  4.1709053385292759e-02  4.1765411586120106e-02  4.1542801770238197e-02  4.1064518358123740e-02  4.0486965335671594e-02  3.9886043815308816e-02  3.9295382584450506e-02  3.8738015621121641e-02  3.8226154981963002e-02  3.7757130918581572e-02  3.7319656825465647e-02  3.6914920214268010e-02  3.6543129823897132e-02  3.6200763467113518e-02  3.5873580949049987e-02  3.5567704564463780e-02  3.5273165968763023e-02  3.4984673277021885e-02  3.4704541330849270e-02  3.4427413388088031e-02  3.4147205607211038e-02  3.3855803208978408e-02  3.3560519683251154e-02  3.3248748935525201e-02  3.2923327084180963e-02  3.2573671545919961e-02  3.2205300478489317e-02  3.1815591336683512e-02  3.1394376102443070e-02  3.0948078816498154e-02  3.0460893072728406e-02  2.9951109934823202e-02  2.9405602683606806e-02  2.8827825595435230e-02  2.8211282001651895e-02  2.7560860173247711e-02  2.6878084247104871e-02  2.6163010084771066e-02  2.5417308312427802e-02  2.4642699096312292e-02  2.3837303095808157e-02  2.2992393293610476e-02  2.2135873240043295e-02  2.1258713878946216e-02  2.0367113993247168e-02  1.9465757582771245e-02  1.8544473788507800e-02  1.7629983416011019e-02  1.6696587230030282e-02  1.5767715128642282e-02  1.4851612492501316e-02  1.3949265787885355e-02  1.3062672552625592e-02  1.2178560744276187e-02  1.1333873704621000e-02  1.0503568345744608e-02  9.6975911199253615e-03  8.9320318640358637e-03  8.1879964132030407e-03  7.4797714517210716e-03  6.8096337757935959e-03  6.1715470689286739e-03  5.5769389168440686e-03  5.0127743901044325e-03  4.4899772531971594e-03  4.0022642567376868e-03  3.5515655691907805e-03  3.1345161325065899e-03  2.7480957604700666e-03  2.4013645912171326e-03  2.0803951708971173e-03  1.7919601616461969e-03  1.5306918525217525e-03  1.2978876286259611e-03  1.0878116982902582e-03  9.0377434548788763e-04  7.3907403832905309e-04  5.9572342344035758e-04  4.7314757788778872e-04  3.6624434166782635e-04  2.7698209264303723e-04  2.0218702000805424e-04  1.4183413700133814e-04  9.5410651262015694e-05  6.1539562354600232e-05  4.0106134095768932e-05  3.0008297686486103e-05  3.0332185598583357e-05  4.0576183092399036e-05  5.9648988803569455e-05  8.6954936064566186e-05  1.2149276677781631e-04  1.6409421048436832e-04  2.1443576306732080e-04  2.7369380497466178e-04  3.4036615787270909e-04  4.1680682861051850e-04  4.9976738187659841e-04  5.8962892832812566e-04  6.7701961934726505e-04  7.4904166246725985e-04  7.8536960172640574e-04  7.8297921609940448e-04  7.8182272677300847e-04  7.7335512395955419e-04  7.6709218746342058e-04  7.5895384823979474e-04  7.4852000423745004e-04  7.3790942833345976e-04  7.2410929200107080e-04  7.1062898346564230e-04  6.9555151925715635e-04  6.7908846221008715e-04  6.6073855187586100e-04  6.4103973669956207e-04  6.2039812657602644e-04  5.9855335748783072e-04  5.7564891320674352e-04  5.5121865481399439e-04  5.2561643730391879e-04  4.9955595963573497e-04  4.7294445446241067e-04  4.4498796688420669e-04  4.1690888019520818e-04  3.8865853148162645e-04  3.5990481314121769e-04  3.3160749566930691e-04  3.0475696207602827e-04  2.7738947486137170e-04  2.5058611645881938e-04  2.2471829708053270e-04  1.9950376765856865e-04  1.7662655489621636e-04  1.5576993517721192e-04  1.3689204187943289e-04  1.2174173724229395e-04  1.1281409771176923e-04  1.1166960187082605e-04  1.2425452048299377e-04  1.6044509897123268e-04  2.3709679237498023e-04  3.9242097966629247e-04  6.8004581353280384e-04  2.1106309212306110e-03  3.6948826798361960e-03  6.4937901514329575e-03  1.1262452211207315e-02  1.9741337422303343e-02  3.4723820261550374e-02  6.0784067018175680e-02  1.0622301434245346e-01  1.8493091090382913e-01  3.2702569170556867e-01  5.7160167611340296e-01  1.0000000000000000e+00  1.0000000000000000e+00  1.0000000000000000e+00  1.0000000000000000e+00  1.0000000000000000e+00  1.0000000000000000e+00  1.0000000000000000e+00  1.0000000000000000e+00  1.0000000000000000e+00  1.0000000000000000e+00  1.0000000000000000e+00  1.0000000000000000e+00  1.0000000000000000e+00  1.0000000000000000e+00  1.0000000000000000e+00  1.0000000000000000e+00  1.0000000000000000e+00  1.0000000000000000e+00  1.0000000000000000e+00  1.0000000000000000e+00  1.0000000000000000e+00  1.0000000000000000e+00  1.0000000000000000e+00  1.0000000000000000e+00  1.0000000000000000e+00  1.0000000000000000e+00  1.0000000000000000e+00  1.0000000000000000e+00  1.0000000000000000e+00  1.0000000000000000e+00  1.0000000000000000e+00  1.0000000000000000e+00  1.0000000000000000e+00  1.0000000000000000e+00  1.0000000000000000e+00  1.0000000000000000e+00  1.0000000000000000e+00  1.0000000000000000e+00  1.0000000000000000e+00  1.0000000000000000e+00  1.0000000000000000e+00  1.0000000000000000e+00  1.0000000000000000e+00  1.0000000000000000e+00  1.0000000000000000e+00  1.0000000000000000e+00  1.0000000000000000e+00  1.0000000000000000e+00  1.0000000000000000e+00  1.0000000000000000e+00  1.0000000000000000e+00  1.0000000000000000e+00  1.0000000000000000e+00  1.0000000000000000e+00  1.0000000000000000e+00  1.0000000000000000e+00  1.0000000000000000e+00  1.0000000000000000e+00  1.0000000000000000e+00  1.0000000000000000e+00  1.0000000000000000e+00  1.0000000000000000e+00  1.0000000000000000e+00  1.0000000000000000e+00  1.0000000000000000e+00  1.0000000000000000e+00  1.0000000000000000e+00  1.0000000000000000e+00  1.0000000000000000e+00  1.0000000000000000e+00  1.0000000000000000e+00  1.0000000000000000e+00  1.0000000000000000e+00  1.0000000000000000e+00  1.0000000000000000e+00  1.0000000000000000e+00  1.0000000000000000e+00  1.0000000000000000e+00  1.0000000000000000e+00  1.0000000000000000e+00  1.0000000000000000e+00  1.0000000000000000e+00  1.0000000000000000e+00  1.0000000000000000e+00  1.0000000000000000e+00  1.0000000000000000e+00  1.0000000000000000e+00  1.0000000000000000e+00  1.0000000000000000e+00  1.0000000000000000e+00  1.0000000000000000e+00  1.0000000000000000e+00  1.0000000000000000e+00  1.0000000000000000e+00  1.0000000000000000e+00  1.0000000000000000e+00  1.0000000000000000e+00  1.0000000000000000e+00  1.0000000000000000e+00  1.0000000000000000e+00  1.0000000000000000e+00  1.0000000000000000e+00  1.0000000000000000e+00  1.0000000000000000e+00  1.0000000000000000e+00  1.0000000000000000e+00  1.0000000000000000e+00  1.0000000000000000e+00  1.0000000000000000e+00  1.0000000000000000e+00  5.7157111724791088e-01  3.2704088698308703e-01  1.8489420258612718e-01  1.0624090210613196e-01  6.0791675295732261e-02  3.4729720469216942e-02  1.9749544961421710e-02  1.1265293792295425e-02  6.4989515750499983e-03  3.6987059575462346e-03  2.1142801989312101e-03  6.8414382352178908e-04  3.9709265870455578e-04  2.4208083420817605e-04  1.6660955074209214e-04  1.3109387821265024e-04  1.1892947129713517e-04  1.2019549665825678e-04  1.2895132714590201e-04  1.4323002478213153e-04  1.6070189975404703e-04  1.7959782400991077e-04  1.9915237145956322e-04  2.2011477109324567e-04  2.4055159390558311e-04  2.6037042025284045e-04  2.7960519884219937e-04  2.9638481602940753e-04  3.1273824863729989e-04  3.2723356996411173e-04  3.3936376894679905e-04  3.4938035588885988e-04  3.5671504533724190e-04  3.6084234078631919e-04  3.6157832551315429e-04  3.5933362013438930e-04  3.5407087530021350e-04  3.4558678716301142e-04  3.3330420606956487e-04  3.1787581680215609e-04  3.0031639260880849e-04  2.7973502205449287e-04  2.5707145780955778e-04  2.3276947665841325e-04  2.0711252684430461e-04  1.8175657094260094e-04  1.5887576731062780e-04  1.3704230107540029e-04  1.1815229308451387e-04  1.0537083636758706e-04  9.9151117977195138e-05  1.0862506976600864e-04  1.2343313112403163e-04  1.1995937910789704e-03  1.2076027018415598e-03  1.2144694992790794e-03  1.2189062655930890e-03  1.2232021070770784e-03  1.2487510531992219e-03  1.2573894346937244e-03  1.2536422180823370e-03  1.2796420998168411e-03  1.3064696340739648e-03  1.2985258148452490e-03  1.3271309981820255e-03  1.3520673267218316e-03  1.3652326502859424e-03  1.3775954453300709e-03  1.3812593175450093e-03  1.3918293581051831e-03  1.3922619947070128e-03  1.4207491656696009e-03  1.4327117806560779e-03  1.4287123962767781e-03  1.4333805514828537e-03  1.4505885769346295e-03  1.4514285420123894e-03  1.4380712543055521e-03  1.4371704146878140e-03  1.4326161684382942e-03  1.4187926337859572e-03  1.4213054393224453e-03  1.4036398090698542e-03  1.3840795071384849e-03  1.3775548158640248e-03  1.3683926384583499e-03  1.3503140145817102e-03  1.3603365834071589e-03  1.3871963149447789e-03  1.3815143646906131e-03  1.4417183599220494e-03  1.5155823972869186e-03  1.6122824853822663e-03  1.8062776238894100e-03  2.0454437730237376e-03  2.3720943732207793e-03  2.8536141392585227e-03  3.4837643187287551e-03  4.3409528442512899e-03  5.4874085601796588e-03  6.9557489066609064e-03  8.8082730322528169e-03  1.1136476425473336e-02  1.3989044210799127e-02  1.7401260066135214e-02  2.1394941054444928e-02  2.5733160310375685e-02  3.0386357759692267e-02  3.5208995213819344e-02  3.9854002324361711e-02  4.4057234136581420e-02  4.7699915247752814e-02  5.0514445678945724e-02  5.2450589258224468e-02  5.3566007405491244e-02  5.3919650041749680e-02  5.3644606735585007e-02  5.2870324005830763e-02  5.1732724286946322e-02  5.0388943237287986e-02  4.8894534335744318e-02  4.7353071757913236e-02  4.5793303324259266e-02  4.4318796835762363e-02  4.2903152125158113e-02  4.1575968313234006e-02  4.0347837873246681e-02  3.9225269331174602e-02  3.8194478581808564e-02  3.7252815146188889e-02  3.6411814746421085e-02  3.5650419943243972e-02  3.4963399152561248e-02  3.4335626200688904e-02  3.3763076352988607e-02  3.3244899442254006e-02  3.2771381984246062e-02  3.2328037209854048e-02  3.1926953487865589e-02  3.1552440802922091e-02  3.1206564055025171e-02  3.0877733586345060e-02  3.0558442264611421e-02  3.0258355636325677e-02  2.9967665508007627e-02  2.9675356321485807e-02  2.9384011711937129e-02  2.9088642003786108e-02  2.8794159487448057e-02  2.8493080515438567e-02  2.8179392692554685e-02  2.7853705647865087e-02  2.7512155598982617e-02  2.7155362830233242e-02  2.6780607785167589e-02  2.6388924989610037e-02  2.5974507628853592e-02  2.5537079905277468e-02  2.5083092605902087e-02  2.4608145444723003e-02  2.4126834939638780e-02  2.3649754378138783e-02  2.3209358068446831e-02  2.2863600373107560e-02  1.2032378845296845e-03  1.2109785872458918e-03  1.2179731740850647e-03  1.2224595716967030e-03  1.2268118756736796e-03  1.2526701630603937e-03  1.2605818601095894e-03  1.2565028774181397e-03  1.2811269903044500e-03  1.3064076075262965e-03  1.2993251116076999e-03  1.3238895272411669e-03  1.3470579264649300e-03  1.3581870993491082e-03  1.3685074852426320e-03  1.3708214876575462e-03  1.3783257734916912e-03  1.3747701695546583e-03  1.4029913454506038e-03  1.4175471054581523e-03  1.4128146702260536e-03  1.4177349113550176e-03  1.4317820198119550e-03  1.4322506930556369e-03  1.4176337860276908e-03  1.4164071469988662e-03  1.4125400352505289e-03  1.3990877137941339e-03  1.4012743711372155e-03  1.3844988195080008e-03  1.3647812912122310e-03  1.3570929243048480e-03  1.3462029794830378e-03  1.3270261923648491e-03  1.3349973346426956e-03  1.3590822062674566e-03  1.3474061902655789e-03  1.3997038444844530e-03  1.4612580851199805e-03  1.5425605458747474e-03  1.7171557780985424e-03  1.9281694947028117e-03  2.2207052955624468e-03  2.6593211461503436e-03  3.2325989475881192e-03  4.0197430012149839e-03  5.0804513936473627e-03  6.4465156748327633e-03  8.1801272914578706e-03  1.0375274276135457e-02  1.3082244322960568e-02  1.6342936152961174e-02  2.0180858013247469e-02  2.4383477427352553e-02  2.8926467154687451e-02  3.3672783469431318e-02  3.8292935908160512e-02  4.2539508429042298e-02  4.6274707987365257e-02  4.9241567318153587e-02  5.1376091303900626e-02  5.2711404960117822e-02  5.3301090548127372e-02  5.3263008730666979e-02  5.2702129082015402e-02  5.1763718943610669e-02  5.0595493149417879e-02  4.9248385756412785e-02  4.7827478357741302e-02  4.6359877823091179e-02  4.4962921121817503e-02  4.3607155246231433e-02  4.2316038658862069e-02  4.1116338720744723e-02  4.0011521981066944e-02  3.8989158296696302e-02  3.8047715442479695e-02  3.7199997859264651e-02  3.6426552258362437e-02  3.5724689131234132e-02  3.5077756917563346e-02  3.4480983842086345e-02  3.3936519385626647e-02  3.3432089836246993e-02  3.2956143039608719e-02  3.2517246582691867e-02  3.2101565266979035e-02  3.1712166291643244e-02  3.1335700458421309e-02  3.0963336957026497e-02  3.0606320008443783e-02  3.0253788302887680e-02  2.9894237237524230e-02  2.9531648106229890e-02  2.9158421463365381e-02  2.8781452388563975e-02  2.8393302656925311e-02  2.7985910442741877e-02  2.7561676427930247e-02  2.7115398094976536e-02  2.6648600109004023e-02  2.6160507710747318e-02  2.5650524767107396e-02  2.5115574302556013e-02  2.4555344815007544e-02  2.3976003993309174e-02  2.3377197090625891e-02  2.2772554885164435e-02  2.2177512760263095e-02  2.1635350771229845e-02  2.1209984201998700e-02  6.5177903662449577e-01  4.4674087368071852e-01  3.0603955786724291e-01  2.1887270382600926e-01  1.6188680929034827e-01  1.2346893426915144e-01  9.7523458077306086e-02  8.0101842458068839e-02  6.7656988381229966e-02  5.8867344347276182e-02  5.2387780408424851e-02  4.7461120101971781e-02  4.3739652781392885e-02  4.0845085572467306e-02  3.8563754815866415e-02  3.6728133558882964e-02  3.5259925414311034e-02  3.4055601703655763e-02  3.3056839556886569e-02  3.2239837965031194e-02  3.1554721886203625e-02  3.0969790328611035e-02  3.0484319842262214e-02  3.0066977493551590e-02  2.9710512424849376e-02  2.9408029314053584e-02  2.9130347691206190e-02  2.8896971414992742e-02  2.8680521627689928e-02  2.8480674598113587e-02  2.8301951667415750e-02  2.8135906694412662e-02  2.7969008010693311e-02  2.7798196907079638e-02  2.7625127365457580e-02  2.7441816817526131e-02  2.7256966970454485e-02  2.7055837331419370e-02  2.6839999376204161e-02  2.6608470285566354e-02  2.6357269030033312e-02  2.6084795024455498e-02  2.5784951639776087e-02  2.5460415582127308e-02  2.5101202108228159e-02  2.4713343117442391e-02  2.4295534648055544e-02  2.3839108542751952e-02  2.3352445104876097e-02  2.2827326396261755e-02  2.2273596984701719e-02  2.1702417236921432e-02  2.1127897662067258e-02  2.0597346140185928e-02  2.0163110863030787e-02  6.9595654548383441e-03  1.6773776236457522e-04  2.9215836134011162e-02  3.4969390186807545e-02  2.1668426264832556e-02  8.3291512271969187e-04  2.2171349139349218e-04  3.6945512614123210e-02  3.2129358586655200e-02  1.6225528583398301e-02  1.8616179372032702e-03  8.9135966977546408e-05  3.1883872423634524e-02  3.5703682054148284e-02  6.4393482435183462e-03  1.5367326345363061e-04  3.7387425639495160e-02  2.5306240315210324e-02  2.6998265611505963e-04  6.9209541432961874e-03  3.4207920178071609e