<?xml version="1.0"?>
<VTKFile type="UnstructuredGrid"  version="0.1"  >
<UnstructuredGrid>
<Piece  NumberOfPoints="15540" NumberOfCells="30546">
<Points>
<DataArray  type="Float64"  NumberOfComponents="3"  format="ascii">0 0 0  -0.5 -0.5 0  0.5 -0.5 0  0.5 0 0  0.5 0.5 0  -0.5 0.5 0  -0.5 0.0001 0  -0.5 -0.0001 0  0.5 0.1 0  0.5 -0.1 0  -0.5 -0.1 0  -0.5 0.1 0  -0.4900000000000277 -0.5 0  -0.4800000000000555 -0.5 0  -0.4700000000000832 -0.5 0  -0.4600000000001109 -0.5 0  -0.4500000000001387 -0.5 0  -0.4400000000001664 -0.5 0  -0.4300000000001942 -0.5 0  -0.4200000000002219 -0.5 0  -0.4100000000002497 -0.5 0  -0.4000000000002774 -0.5 0  -0.3900000000003052 -0.5 0  -0.3800000000003328 -0.5 0  -0.3700000000003606 -0.5 0  -0.3600000000003883 -0.5 0  -0.3500000000004161 -0.5 0  -0.3400000000004438 -0.5 0  -0.3300000000004716 -0.5 0  -0.3200000000004993 -0.5 0  -0.3100000000005271 -0.5 0  -0.3000000000005548 -0.5 0  -0.2900000000005825 -0.5 0  -0.2800000000006103 -0.5 0  -0.2700000000006381 -0.5 0  -0.2600000000006658 -0.5 0  -0.2500000000006935 -0.5 0  -0.2400000000007212 -0.5 0  -0.230000000000749 -0.5 0  -0.2200000000007767 -0.5 0  -0.2100000000008044 -0.5 0  -0.2000000000008322 -0.5 0  -0.19000000000086 -0.5 0  -0.1800000000008877 -0.5 0  -0.1700000000009154 -0.5 0  -0.1600000000009431 -0.5 0  -0.1500000000009709 -0.5 0  -0.1400000000009986 -0.5 0  -0.1300000000010264 -0.5 0  -0.1200000000010541 -0.5 0  -0.1100000000010818 -0.5 0  -0.1000000000011096 -0.5 0  -0.09000000000113734 -0.5 0  -0.08000000000116503 -0.5 0  -0.07000000000119283 -0.5 0  -0.06000000000122058 -0.5 0  -0.05000000000124827 -0.5 0  -0.04000000000127607 -0.5 0  -0.03000000000130376 -0.5 0  -0.02000000000133151 -0.5 0  -0.01000000000135925 -0.5 0  -1.376121439022882e-12 -0.5 0  0.009999999998640763 -0.5 0  0.01999999999866864 -0.5 0  0.02999999999869629 -0.5 0  0.03999999999872406 -0.5 0  0.04999999999875182 -0.5 0  0.05999999999877947 -0.5 0  0.06999999999880724 -0.5 0  0.079999999998835 -0.5 0  0.08999999999886266 -0.5 0  0.09999999999889042 -0.5 0  0.1099999999989182 -0.5 0  0.1199999999989459 -0.5 0  0.1299999999989737 -0.5 0  0.1399999999990014 -0.5 0  0.1499999999990291 -0.5 0  0.1599999999990568 -0.5 0  0.1699999999990847 -0.5 0  0.1799999999991124 -0.5 0  0.1899999999991401 -0.5 0  0.1999999999991678 -0.5 0  0.2099999999991955 -0.5 0  0.2199999999992234 -0.5 0  0.2299999999992511 -0.5 0  0.2399999999992788 -0.5 0  0.2499999999993066 -0.5 0  0.2599999999993342 -0.5 0  0.269999999999362 -0.5 0  0.2799999999993897 -0.5 0  0.2899999999994175 -0.5 0  0.2999999999994452 -0.5 0  0.3099999999994729 -0.5 0  0.3199999999995007 -0.5 0  0.3299999999995284 -0.5 0  0.3399999999995562 -0.5 0  0.3499999999995839 -0.5 0  0.3599999999996116 -0.5 0  0.3699999999996393 -0.5 0  0.379999999999667 -0.5 0  0.3899999999996949 -0.5 0  0.3999999999997226 -0.5 0  0.4099999999997503 -0.5 0  0.419999999999778 -0.5 0  0.4299999999998058 -0.5 0  0.4399999999998336 -0.5 0  0.4499999999998613 -0.5 0  0.4599999999998891 -0.5 0  0.4699999999999167 -0.5 0  0.4799999999999445 -0.5 0  0.4899999999999722 -0.5 0  0.5 -0.4902110204681464 0  0.5 -0.4804459958734807 0  0.5 -0.4707048677450883 0  0.5 -0.4609875815766065 0  0.5 -0.4512940759251849 0  0.5 -0.4416242912883993 0  0.5 -0.4319781678689807 0  0.5 -0.4223556545383647 0  0.5 -0.4127566896324213 0  0.5 -0.4031812128200121 0  0.5 -0.3936291733057916 0  0.5 -0.3841005081172659 0  0.5 -0.3745951585781932 0  0.5 -0.3651130778999337 0  0.5 -0.3556541993788045 0  0.5 -0.3462184677228392 0  0.5 -0.3368058273705318 0  0.5 -0.3274162224888609 0  0.5 -0.3180495969712945 0  0.5 -0.3087058944357755 0  0.5 -0.299385058222682 0  0.5 -0.2900870313927414 0  0.5 -0.2808117567250807 0  0.5 -0.2715591844628491 0  0.5 -0.2623292564012653 0  0.5 -0.253121909553727 0  0.5 -0.2439371050851549 0  0.5 -0.2347747685524501 0  0.5 -0.2256348634421331 0  0.5 -0.2165173209784076 0  0.5 -0.207422087829958 0  0.5 -0.1983491207029381 0  0.5 -0.1892983550950482 0  0.5 -0.1802697378305253 0  0.5 -0.1712632154965152 0  0.5 -0.1622787344187354 0  0.5 -0.1533162406595534 0  0.5 -0.1443756800160514 0  0.5 -0.1354569980180493 0  0.5 -0.1265601399261414 0  0.5 -0.1176850622761093 0  0.5 -0.1088317009011999 0  0.5 -0.09166666666668973 0  0.5 -0.08333333333337943 0  0.5 -0.07500000000006915 0  0.5 -0.06666666666675886 0  0.5 -0.05833333333344858 0  0.5 -0.05000000000013693 0  0.5 -0.04166666666678191 0  0.5 -0.03333333333342643 0  0.5 -0.02500000000006916 0  0.5 -0.01666666666671188 0  0.5 -0.00833333333335548 0  0.5 0.008333333333318314 0  0.5 0.01666666666663358 0  0.5 0.02499999999994162 0  0.5 0.03333333333325101 0  0.5 0.04166666666655769 0  0.5 0.04999999999986843 0  0.5 0.05833333333322258 0  0.5 0.06666666666657715 0  0.5 0.07499999999993352 0  0.5 0.08333333333328992 0  0.5 0.09166666666664541 0  0.5 0.1088317009011616 0  0.5 0.1176850622760307 0  0.5 0.1265601399260203 0  0.5 0.1354569980178909 0  0.5 0.1443756800158549 0  0.5 0.153316240659315 0  0.5 0.1622787344184454 0  0.5 0.1712632154961752 0  0.5 0.1802697378301332 0  0.5 0.1892983550946039 0  0.5 0.1983491207024433 0  0.5 0.2074220878294123 0  0.5 0.216517320977811 0  0.5 0.2256348634414833 0  0.5 0.2347747685517479 0  0.5 0.2439371050844009 0  0.5 0.2531219095529224 0  0.5 0.2623292564004089 0  0.5 0.2715591844619371 0  0.5 0.2808117567241139 0  0.5 0.290087031391723 0  0.5 0.2993850582216101 0  0.5 0.3087058944347426 0  0.5 0.3180495969703129 0  0.5 0.3274162224879299 0  0.5 0.3368058273696494 0  0.5 0.3462184677220051 0  0.5 0.3556541993780186 0  0.5 0.3651130778991989 0  0.5 0.3745951585775107 0  0.5 0.3841005081166359 0  0.5 0.3936291733052134 0  0.5 0.4031812128194852 0  0.5 0.412756689631945 0  0.5 0.4223556545379392 0  0.5 0.431978167868607 0  0.5 0.4416242912880781 0  0.5 0.4512940759249164 0  0.5 0.4609875815763912 0  0.5 0.4707048677449264 0  0.5 0.4804459958733726 0  0.5 0.4902110204680924 0  0.4900000000000277 0.5 0  0.4800000000000555 0.5 0  0.4700000000000832 0.5 0  0.4600000000001109 0.5 0  0.4500000000001387 0.5 0  0.4400000000001664 0.5 0  0.4300000000001942 0.5 0  0.4200000000002219 0.5 0  0.4100000000002497 0.5 0  0.4000000000002774 0.5 0  0.3900000000003052 0.5 0  0.3800000000003328 0.5 0  0.3700000000003606 0.5 0  0.3600000000003883 0.5 0  0.3500000000004161 0.5 0  0.3400000000004438 0.5 0  0.3300000000004716 0.5 0  0.3200000000004993 0.5 0  0.3100000000005271 0.5 0  0.3000000000005548 0.5 0  0.2900000000005825 0.5 0  0.2800000000006103 0.5 0  0.2700000000006381 0.5 0  0.2600000000006658 0.5 0  0.2500000000006935 0.5 0  0.2400000000007212 0.5 0  0.230000000000749 0.5 0  0.2200000000007767 0.5 0  0.2100000000008044 0.5 0  0.2000000000008322 0.5 0  0.19000000000086 0.5 0  0.1800000000008877 0.5 0  0.1700000000009154 0.5 0  0.1600000000009431 0.5 0  0.1500000000009709 0.5 0  0.1400000000009986 0.5 0  0.1300000000010264 0.5 0  0.1200000000010541 0.5 0  0.1100000000010818 0.5 0  0.1000000000011096 0.5 0  0.09000000000113734 0.5 0  0.08000000000116503 0.5 0  0.07000000000119283 0.5 0  0.06000000000122058 0.5 0  0.05000000000124827 0.5 0  0.04000000000127607 0.5 0  0.03000000000130376 0.5 0  0.02000000000133151 0.5 0  0.01000000000135925 0.5 0  1.376121439022882e-12 0.5 0  -0.009999999998640763 0.5 0  -0.01999999999866864 0.5 0  -0.02999999999869629 0.5 0  -0.03999999999872406 0.5 0  -0.04999999999875182 0.5 0  -0.05999999999877947 0.5 0  -0.06999999999880724 0.5 0  -0.079999999998835 0.5 0  -0.08999999999886266 0.5 0  -0.09999999999889042 0.5 0  -0.1099999999989182 0.5 0  -0.1199999999989459 0.5 0  -0.1299999999989737 0.5 0  -0.1399999999990014 0.5 0  -0.1499999999990291 0.5 0  -0.1599999999990568 0.5 0  -0.1699999999990847 0.5 0  -0.1799999999991124 0.5 0  -0.1899999999991401 0.5 0  -0.1999999999991678 0.5 0  -0.2099999999991955 0.5 0  -0.2199999999992234 0.5 0  -0.2299999999992511 0.5 0  -0.2399999999992788 0.5 0  -0.2499999999993066 0.5 0  -0.2599999999993342 0.5 0  -0.269999999999362 0.5 0  -0.2799999999993897 0.5 0  -0.2899999999994175 0.5 0  -0.2999999999994452 0.5 0  -0.3099999999994729 0.5 0  -0.3199999999995007 0.5 0  -0.3299999999995284 0.5 0  -0.3399999999995562 0.5 0  -0.3499999999995839 0.5 0  -0.3599999999996116 0.5 0  -0.3699999999996393 0.5 0  -0.379999999999667 0.5 0  -0.3899999999996949 0.5 0  -0.3999999999997226 0.5 0  -0.4099999999997503 0.5 0  -0.419999999999778 0.5 0  -0.4299999999998058 0.5 0  -0.4399999999998336 0.5 0  -0.4499999999998613 0.5 0  -0.4599999999998891 0.5 0  -0.4699999999999167 0.5 0  -0.4799999999999445 0.5 0  -0.4899999999999722 0.5 0  -0.5 0.4902110204681464 0  -0.5 0.4804459958734807 0  -0.5 0.4707048677450883 0  -0.5 0.4609875815766065 0  -0.5 0.4512940759251849 0  -0.5 0.4416242912883993 0  -0.5 0.4319781678689807 0  -0.5 0.4223556545383647 0  -0.5 0.4127566896324213 0  -0.5 0.4031812128200121 0  -0.5 0.3936291733057916 0  -0.5 0.3841005081172659 0  -0.5 0.3745951585781932 0  -0.5 0.3651130778999337 0  -0.5 0.3556541993788045 0  -0.5 0.3462184677228392 0  -0.5 0.3368058273705318 0  -0.5 0.3274162224888609 0  -0.5 0.3180495969712945 0  -0.5 0.3087058944357755 0  -0.5 0.299385058222682 0  -0.5 0.2900870313927414 0  -0.5 0.2808117567250807 0  -0.5 0.2715591844628491 0  -0.5 0.2623292564012653 0  -0.5 0.253121909553727 0  -0.5 0.2439371050851549 0  -0.5 0.2347747685524501 0  -0.5 0.2256348634421331 0  -0.5 0.2165173209784076 0  -0.5 0.207422087829958 0  -0.5 0.1983491207029381 0  -0.5 0.1892983550950482 0  -0.5 0.1802697378305253 0  -0.5 0.1712632154965152 0  -0.5 0.1622787344187354 0  -0.5 0.1533162406595534 0  -0.5 0.1443756800160514 0  -0.5 0.1354569980180493 0  -0.5 0.1265601399261414 0  -0.5 0.1176850622761093 0  -0.5 0.1088317009011999 0  -0.5 0.09167500000001694 0  -0.5 0.08335000000003931 0  -0.5 0.07502500000006167 0  -0.5 0.06670000000008947 0  -0.5 0.05837500000011001 0  -0.5 0.0500500000001328 0  -0.5 0.0417250000001127 0  -0.5 0.03340000000008944 0  -0.5 0.02507500000006573 0  -0.5 0.01675000000004653 0  -0.5 0.008425000000027341 
[...]
<PointData  Scalars="f_25"> 
<DataArray  type="Float64"  Name="f_25"  format="ascii">1.0000000000000000e+00  3.2499017421311924e-09  4.6069509045403120e-06  9.9417971410739481e-01  2.0178934257075363e-06  2.8568517755963575e-08  1.0000000000000000e+00  1.0000000000000000e+00  2.0801251867287947e-03  1.1727463785425332e-03  1.1821042849968725e-03  1.1815699741899294e-03  3.4746981941114702e-09  4.2016152998817404e-09  5.2276148882487614e-09  6.3769008925523508e-09  7.4913090970062762e-09  8.5784823155448850e-09  9.6299580988104869e-09  1.0721110782219550e-08  1.1774095419697383e-08  1.2861494918913269e-08  1.3994383795580696e-08  1.5266370210466490e-08  1.6611045676980403e-08  1.8067895378585660e-08  1.9678352507152023e-08  2.1480689909721967e-08  2.3575385918137384e-08  2.5829769809876450e-08  2.8349844089885140e-08  3.1187099115904185e-08  3.4206543861816610e-08  3.7525835982544493e-08  4.1260316912993800e-08  4.5167340352397535e-08  4.9475219543790882e-08  5.4135294569551190e-08  5.9157547112699240e-08  6.4690021642863731e-08  7.0448178076621707e-08  7.6802530724127956e-08  8.3503930314223431e-08  9.0709414513564468e-08  9.8402842937531834e-08  1.0668414542239537e-07  1.1545520548963598e-07  1.2467625299615107e-07  1.3443006373435243e-07  1.4474836255963346e-07  1.5556539506362886e-07  1.6680324646094321e-07  1.7863868328486229e-07  1.9103061347595547e-07  2.0375507183406131e-07  2.1712331243086988e-07  2.3085581733574389e-07  2.4526547385683499e-07  2.5991548645232194e-07  2.7503215346395216e-07  2.9071750739189939e-07  3.0670088755539294e-07  3.2310336937457207e-07  3.3989676807355602e-07  3.5724041715869286e-07  3.7494352570948636e-07  3.9267830431021410e-07  4.1082969631463821e-07  4.2937842166526898e-07  4.4833374399535272e-07  4.6754336663985986e-07  4.8693081445859478e-07  5.0700906781900626e-07  5.2748191814318285e-07  5.4784380099827929e-07  5.6875315425936113e-07  5.9016575004611590e-07  6.1163128105313456e-07  6.3391770471399841e-07  6.5634769629899806e-07  6.7928765018462723e-07  7.0295005457625564e-07  7.2725076511773506e-07  7.5226139465583444e-07  7.7793460906146566e-07  8.0405130157209835e-07  8.3122324588994768e-07  8.5960586461889975e-07  8.8885190347475645e-07  9.1957777223781043e-07  9.5217835215071183e-07  9.8604417350713176e-07  1.0224335234774196e-06  1.0604895502941022e-06  1.1009541807674082e-06  1.1446896056703274e-06  1.1925210614241774e-06  1.2441292515395519e-06  1.3009694089278629e-06  1.3653140274161094e-06  1.4365837769453381e-06  1.5188502577967569e-06  1.6135557039118033e-06  1.7287519828458854e-06  1.8645867349333080e-06  2.0358164953886999e-06  2.2552803667417878e-06  2.5439511057947529e-06  2.9225275709313981e-06  3.4190294657825541e-06  4.0603997779109006e-06  4.2686086340541769e-06  3.6681310543613958e-06  3.1994553087681794e-06  2.8334043582944568e-06  2.5713660684467152e-06  2.3784794949426038e-06  2.2365579631563267e-06  2.1275705158607393e-06  2.0424448803344890e-06  1.9761219687192323e-06  1.9222597563290705e-06  1.8796366120116965e-06  1.8446907340584761e-06  1.8171666155922762e-06  1.7941552839950217e-06  1.7752513025361373e-06  1.7603035537379328e-06  1.7480630562638612e-06  1.7380281359410538e-06  1.7305693825440894e-06  1.7249580417248986e-06  1.7218335207493944e-06  1.7214086487468077e-06  1.7247666770634554e-06  1.7339752098741291e-06  1.7526844239926118e-06  1.7883066307500604e-06  1.8508352458627134e-06  1.9682369816847722e-06  2.1834331356639546e-06  2.5714322881292969e-06  3.3021814434472830e-06  4.6121681914394212e-06  7.0211935039893595e-06  1.1305303736655330e-05  1.9444905602972283e-05  3.4274758497868278e-05  6.1512681731111182e-05  1.1047809888035114e-04  1.9782300083984861e-04  3.5995420750387617e-04  6.5226685969127258e-04  2.0743077472597832e-03  3.6529640960833109e-03  6.4412698588926101e-03  1.1183342947748802e-02  1.9585824486593528e-02  3.4380716392850154e-02  6.0142960665143463e-02  1.0521058605749571e-01  1.8350222278781683e-01  3.2575040811198791e-01  5.7195258439044305e-01  9.8353922203048938e-01  5.7302539964356836e-01  3.3030911708139610e-01  1.8495963835972110e-01  1.0542262751567329e-01  6.0294837252967914e-02  3.4387464988153975e-02  1.9638636359437151e-02  1.1158345877710800e-02  6.4589585870292758e-03  3.6784400206520871e-03  1.1560989844496788e-03  6.3747085998464492e-04  3.4988050220931575e-04  1.9488970861343668e-04  1.0798316674714573e-04  5.9636013684563156e-05  3.3320371433283991e-05  1.8874068210422166e-05  1.1285503454832727e-05  7.0271512381707675e-06  4.7122000161639428e-06  3.4282994894090665e-06  2.7498449518028992e-06  2.3762915025502045e-06  2.1753757774045489e-06  2.0695937730796743e-06  2.0107734781146349e-06  1.9804593781819407e-06  1.9654747724532978e-06  1.9590374418469182e-06  1.9572022870643876e-06  1.9588216657742109e-06  1.9605090814308432e-06  1.9645762865948246e-06  1.9679672021288077e-06  1.9720460438833395e-06  1.9772253904527047e-06  1.9805869211086858e-06  1.9846150441627167e-06  1.9889424816390351e-06  1.9930320460260236e-06  1.9966466984970083e-06  1.9998766017346933e-06  2.0032395038776040e-06  2.0062787054802612e-06  2.0090134297820156e-06  2.0111566862450108e-06  2.0133793040052156e-06  2.0149231725016317e-06  2.0172230178098172e-06  2.0167649230497965e-06  2.0177156628523159e-06  2.0042830706713153e-06  1.9756602474750016e-06  1.9395129222529091e-06  1.8999307070516465e-06  1.8587470959946815e-06  1.8176039196238727e-06  1.7772932832029436e-06  1.7380554343880210e-06  1.6991437684513008e-06  1.6613462267150371e-06  1.6245800701555942e-06  1.5889279204742959e-06  1.5535971439114087e-06  1.5195540147369067e-06  1.4861950954168196e-06  1.4533273654543180e-06  1.4212640952114499e-06  1.3898057137519129e-06  1.3590268068482722e-06  1.3282925138702915e-06  1.2983564612717829e-06  1.2685056866602686e-06  1.2392060459335300e-06  1.2096428512373551e-06  1.1805794282672979e-06  1.1518308468251058e-06  1.1227211793378339e-06  1.0938166802594252e-06  1.0642304642515776e-06  1.0350878656462880e-06  1.0056656062211719e-06  9.7612480660465833e-07  9.4614240635164321e-07  9.1597405836683697e-07  8.8565150574394851e-07  8.5516171969969541e-07  8.2447591888353096e-07  7.9360759646743178e-07  7.6244411062118074e-07  7.3068596728926236e-07  6.9928576329581741e-07  6.6782331815266072e-07  6.3648039313413020e-07  6.0538712082797813e-07  5.7410312237583205e-07  5.4351421357287926e-07  5.1270987797967324e-07  4.8241217778389495e-07  4.5283372510030948e-07  4.2398607314871651e-07  3.9590068509816602e-07  3.6811240185052606e-07  3.4175290447497912e-07  3.1599335972113735e-07  2.9111930312034241e-07  2.6761157463699026e-07  2.4485308957958929e-07  2.2329745687244690e-07  2.0296993291764833e-07  1.8367412668059054e-07  1.6577235508581892e-07  1.4885542875069924e-07  1.3323403376934740e-07  1.1869270381121621e-07  1.0527922403680602e-07  9.2881346484859851e-08  8.1398743503265599e-08  7.1096878385781922e-08  6.1560567684575610e-08  5.2990300046077583e-08  4.5224231493126779e-08  3.8300826970408528e-08  3.2056126605816929e-08  2.6585283188865001e-08  2.1690869400772799e-08  1.7432987436910331e-08  1.3796288296140629e-08  1.0631247616113332e-08  7.9968419507347916e-09  5.8007119433287769e-09  4.0487725731757883e-09  2.7235857951134206e-09  1.7907942069676757e-09  1.2568248486294656e-09  1.0942527553267599e-09  1.2784842232873530e-09  1.7810464656477586e-09  2.5666694367464527e-09  3.6174250597539616e-09  4.9026193254073781e-09  6.4573998350704756e-09  8.2727151192631563e-09  1.0392848181924835e-08  1.2767512762469549e-08  1.5484066825390411e-08  1.8428876689254306e-08  2.1618743241562465e-08  2.4722040359800595e-08  2.7282035881640957e-08  2.8571736134635604e-08  2.8478061840969116e-08  2.8422821118995472e-08  2.8101464241071212e-08  2.7852683992665740e-08  2.7532181765953891e-08  2.7126366801034070e-08  2.6710901166551802e-08  2.6178838138723357e-08  2.5655133093661753e-08  2.5073643948759025e-08  2.4443031093508704e-08  2.3746608875855971e-08  2.3008072958977880e-08  2.2243846658889395e-08  2.1455099023329366e-08  2.0661403946923839e-08  1.9872673831895956e-08  1.9149424082701704e-08  1.8617851545015628e-08  1.8439224638065921e-08  1.8906686992360849e-08  2.0668909301733397e-08  2.4861039398183196e-08  3.3478519058613416e-08  5.0370390325532687e-08  8.2418958283918957e-08  1.4323567099011356e-07  2.5692555378551705e-07  4.6738010482970795e-07  8.5627570008347606e-07  1.5632848075866139e-06  2.8752788986857567e-06  5.2985790293982169e-06  9.6273133913002640e-06  1.7808731005079602e-05  3.2581741575004019e-05  5.9490701350628122e-05  1.0813457817770204e-04  1.9581980400736941e-04  3.5979741724097151e-04  6.5481819314130876e-04  2.0961167109437222e-03  3.6840476309799933e-03  6.4858481998937290e-03  1.1256665042758966e-02  1.9737252620953077e-02  3.4720941362636232e-02  6.0782049372155630e-02  1.0622165164346380e-01  1.8493003604787758e-01  3.2702515527077158e-01  5.7160142370069278e-01  1.0000000000000000e+00  1.0000000000000000e+00  1.0000000000000000e+00  1.0000000000000000e+00  1.0000000000000000e+00  1.0000000000000000e+00  1.0000000000000000e+00  1.0000000000000000e+00  1.0000000000000000e+00  1.0000000000000000e+00  1.0000000000000000e+00  1.0000000000000000e+00  1.0000000000000000e+00  1.0000000000000000e+00  1.0000000000000000e+00  1.0000000000000000e+00  1.0000000000000000e+00  1.0000000000000000e+00  1.0000000000000000e+00  1.0000000000000000e+00  1.0000000000000000e+00  1.0000000000000000e+00  1.0000000000000000e+00  1.0000000000000000e+00  1.0000000000000000e+00  1.0000000000000000e+00  9.9999999999999989e-01  1.0000000000000000e+00  1.0000000000000000e+00  1.0000000000000000e+00  1.0000000000000000e+00  1.0000000000000000e+00  1.0000000000000000e+00  1.0000000000000000e+00  1.0000000000000000e+00  1.0000000000000000e+00  1.0000000000000000e+00  1.0000000000000000e+00  9.9999999999999989e-01  1.0000000000000000e+00  1.0000000000000000e+00  1.0000000000000000e+00  1.0000000000000000e+00  1.0000000000000000e+00  1.0000000000000000e+00  1.0000000000000000e+00  1.0000000000000000e+00  1.0000000000000000e+00  1.0000000000000000e+00  1.0000000000000000e+00  1.0000000000000000e+00  1.0000000000000000e+00  1.0000000000000000e+00  1.0000000000000000e+00  9.9999999999999989e-01  1.0000000000000000e+00  1.0000000000000000e+00  1.0000000000000000e+00  1.0000000000000000e+00  1.0000000000000000e+00  1.0000000000000000e+00  1.0000000000000000e+00  1.0000000000000000e+00  1.0000000000000000e+00  1.0000000000000000e+00  1.0000000000000000e+00  1.0000000000000000e+00  1.0000000000000000e+00  1.0000000000000000e+00  9.9999999999999989e-01  1.0000000000000000e+00  1.0000000000000000e+00  1.0000000000000000e+00  1.0000000000000000e+00  1.0000000000000000e+00  1.0000000000000000e+00  1.0000000000000000e+00  1.0000000000000000e+00  1.0000000000000000e+00  1.0000000000000000e+00  1.0000000000000000e+00  1.0000000000000000e+00  1.0000000000000000e+00  1.0000000000000000e+00  1.0000000000000000e+00  9.9999999999999989e-01  1.0000000000000000e+00  1.0000000000000000e+00  1.0000000000000000e+00  1.0000000000000000e+00  1.0000000000000000e+00  1.0000000000000000e+00  1.0000000000000000e+00  1.0000000000000000e+00  1.0000000000000000e+00  1.0000000000000000e+00  1.0000000000000000e+00  1.0000000000000000e+00  1.0000000000000000e+00  1.0000000000000000e+00  9.9999999999999989e-01  1.0000000000000000e+00  1.0000000000000000e+00  1.0000000000000000e+00  1.0000000000000000e+00  1.0000000000000000e+00  1.0000000000000000e+00  1.0000000000000000e+00  1.0000000000000000e+00  1.0000000000000000e+00  5.7157081540966026e-01  3.2704024579069718e-01  1.8489315726798589e-01  1.0623927490722500e-01  6.0789268537268452e-02  3.4726290682717535e-02  1.9744685441728620e-02  1.1258434814351339e-02  6.4895804250004558e-03  3.6859956343095399e-03  2.0973562739312057e-03  6.5513258319051563e-04  3.5991748216080858e-04  1.9537222735446753e-04  1.0819567617397416e-04  5.9558085286952720e-05  3.2620043235387021e-05  1.7824319747661359e-05  9.6374707779739547e-06  5.3017820495559986e-06  2.8764596142397338e-06  1.5641625572148575e-06  8.5695063148821345e-07  4.6786167159331988e-07  2.5700477168397443e-07  1.4299418413450385e-07  8.1872180979086321e-08  4.9482935211507432e-08  3.2212516074854323e-08  2.3135161045457863e-08  1.8424153252383855e-08  1.6077607276221445e-08  1.4941092085120827e-08  1.4379547862112246e-08  1.4075098534921572e-08  1.3873138693258829e-08  1.3667139894845304e-08  1.3402617329926450e-08  1.3033301031724669e-08  1.2561106628578293e-08  1.2011831476500225e-08  1.1346897313165062e-08  1.0589937823483844e-08  9.7525616332714647e-09  8.8361376971017061e-09  7.8954409425738021e-09  6.9766585637476224e-09  6.0384287231423705e-09  5.1185981250818354e-09  4.3074085605585400e-09  3.6144017667925593e-09  3.3188471701695166e-09  3.2061953710653472e-09  1.1789207707379970e-03  1.1823899717550265e-03  1.1825382877470487e-03  1.1783928070578170e-03  1.1725507838662452e-03  1.1865529652633940e-03  1.1823456938212038e-03  1.1649300042581709e-03  1.1761317727435171e-03  1.1877976458015719e-03  1.1644104568209800e-03  1.1772164923150635e-03  1.1866819592293854e-03  1.1848127358709383e-03  1.1827303285767501e-03  1.1728114040269063e-03  1.1708320061733033e-03  1.1599288577708361e-03  1.1782010601257215e-03  1.1818644621943214e-03  1.1710705074406127e-03  1.1707916819267495e-03  1.1852196040349717e-03  1.1857358870988077e-03  1.1735598116232578e-03  1.1765883847739517e-03  1.1783810780013682e-03  1.1720881300335568e-03  1.1845715020243675e-03  1.1782027587917668e-03  1.1702499274687196e-03  1.1758031596192588e-03  1.1763684528869234e-03  1.1653884510938925e-03  1.1765463474867593e-03  1.1925464272995762e-03  1.1657480907639795e-03  1.1823835721028633e-03  1.1817520615197386e-03  1.1674927505332942e-03  1.1922181817251739e-03  1.1867522220457831e-03  1.1722555876372040e-03  1.1877267612890830e-03  1.1775890803168050e-03  1.1859653012111354e-03  1.2153939407589483e-03  1.2375530479407297e-03  1.2537761778419706e-03  1.3066613606806130e-03  1.3626045147990603e-03  1.4182752087589310e-03  1.5279354617168668e-03  1.6161003803758353e-03  1.7074868888208208e-03  1.8219648084669890e-03  1.8989837790940743e-03  1.9458552088069900e-03  2.0403902090491487e-03  2.0677211096622678e-03  2.0769081528312790e-03  2.1020518982586339e-03  2.0645607125816265e-03  2.0804930438549614e-03  2.0798396253928477e-03  2.0742423351165118e-03  2.0518984234444114e-03  2.0145281757729828e-03  2.0425679086773906e-03  2.0471162514788949e-03  2.0346093051662783e-03  2.0188783135011465e-03  2.0213888075672082e-03  2.0153515468352948e-03  1.9821809665057284e-03  1.9986993320961640e-03  1.9877705405273124e-03  1.9679854055217275e-03  1.9869701796006883e-03  1.9747167373913334e-03  1.9605240366907515e-03  1.9839973699980677e-03  1.9938789429367145e-03  1.9738066586503776e-03  1.9669086715391930e-03  2.0163703769546749e-03  2.0099020063721980e-03  2.0118727409455459e-03  2.0119645243393942e-03  1.9856508721112281e-03  2.0078856599933109e-03  2.0246547704813786e-03  2.0251412837915652e-03  2.0260685340827548e-03  1.9952903786550000e-03  2.0242626543074565e-03  2.0405152242182565e-03  2.0500499471175575e-03  2.0396967681702780e-03  2.0449346458079293e-03  2.0571914753444182e-03  2.0688955012224354e-03  2.0702841936944072e-03  2.0837403490360043e-03  2.0939976532071479e-03  2.0833315698801044e-03  2.0886850714221276e-03  2.0839413653094651e-03  2.0650411132930287e-03  2.0942603099527307e-03  2.1082140190020007e-03  1.1794956977792684e-03  1.1825748453852213e-03  1.1827086502181536e-03  1.1785095644842327e-03  1.1727021559529902e-03  1.1871314167222786e-03  1.1825202824355154e-03  1.1653083276710839e-03  1.1759479470134604e-03  1.1871433652409580e-03  1.1659261744645963e-03  1.1762323810232003e-03  1.1856543095783039e-03  1.1836538565548763e-03  1.1815010040912906e-03  1.1721881042188441e-03  1.1690844189293957e-03  1.1560884867369823e-03  1.1758548276432506e-03  1.1836985555426535e-03  1.1735554176514967e-03  1.1746582132749735e-03  1.1869532189543665e-03  1.1876887620405579e-03  1.1745509201048490e-03  1.1772781969970826e-03  1.1795196391048172e-03  1.1732288711879166e-03  1.1848492147493428e-03  1.1787082321509919e-03  1.1700901076782137e-03  1.1742598823437879e-03  1.1733552600786598e-03  1.1623223670942262e-03  1.1733696271005751e-03  1.1899326345655825e-03  1.1625922957424579e-03  1.1791190542094388e-03  1.1773979917945442e-03  1.1627105196347859e-03  1.1881454627342728e-03  1.1816331765800079e-03  1.1669807087025547e-03  1.1812599705413077e-03  1.1666142725247038e-03  1.1665411670241509e-03  1.1815550122675190e-03  1.1827546698565312e-03  1.1676607380914743e-03  1.1770829375095599e-03  1.1773421155645994e-03  1.1601187351472336e-03  1.1785175718954416e-03  1.1755719094495398e-03  1.1680891312858134e-03  1.1772237803621881e-03  1.1732403202582211e-03  1.1576830453340968e-03  1.1794520572335806e-03  1.1749712327789022e-03  1.1674454359788769e-03  1.1771073903763735e-03  1.1557796973509738e-03  1.1663999470546478e-03  1.1691321467886017e-03  1.1692847095801128e-03  1.1603790547035850e-03  1.1436361216716718e-03  1.1644343206074527e-03  1.1730654143865661e-03  1.1716577315484553e-03  1.1661952383668357e-03  1.1739670573230358e-03  1.1761077382780546e-03  1.1624646622871633e-03  1.1776447243016105e-03  1.1762072109852213e-03  1.1682057404229975e-03  1.1814314992377069e-03  1.1738456736407098e-03  1.1628608433819434e-03  1.1729385696697897e-03  1.1739830348250020e-03  1.1596363427704311e-03  1.1490579392909380e-03  1.1735561607803524e-03  1.1671123897193602e-03  1.1675807369044132e-03  1.1687936972241276e-03  1.1550698137567739e-03  1.1686894852229340e-03  1.1784327001306636e-03  1.1763915888062426e-03  1.1724983865415333e-03  1.1508067210619069e-03  1.1648609322482356e-03  1.1722244615236738e-03  1.1763831192198569e-03  1.1678137448304035e-03  1.1675075901113141e-03  1.1698782476600768e-03  1.1720461593383582e-03  1.1696376055553388e-03  1.1747413077762866e-03  1.1792701493668746e-03  1.1733334433458153e-03  1.1754009049736692e-03  1.1733832476993754e-03  1.1621941296884920e-03  1.1796940317247606e-03  1.1893680269757659e-03  9.9122186421037761e-01  9.9729657442816355e-01  9.9264508805199614e-01  9.9422224955831517e-01  9.9502205567226809e-01  9.9441591025417830e-01  9.9493116430244255e-01  9.9536181705627791e-01  9.9406952218242928e-01  9.9460067573424882e-01  9.9313490987665209e-01  9.9666369667629584e-01  9.9365340534188940e-01  9.9556990387703082e-01  9.9495667725128034e-01  9.9548069374913684e-01  9.9531548357581479e-01  9.9522671317682121e-01  9.9548613240891637e-01  9.9550239928566553e-01  9.9560919655236046e-01  9.9569588846730828e-01  9.9579627560998141e-01  9.9612348828269459e-01  9.9610866772913143e-01  9.9413477723960697e-01  9.9789361868575011e-01  9.9465962231977667e-01  9.9626657242014816e-01  9.9490702346644677e-01  9.9407505523821171e-01  9.9415622113977542e-01  9.9499818516542582e-01  9.9626401392730135e-01  9.9462128710491438e-01  9.9810276041219004e-01  9.9422229902676340e-01  9.9418768474779307e-01  9.9760607513374822e-01  9.9359934988314513e-01  9.9458289833915536e-01  9.9430854548998016e-01  9.9565359167841860e-01  9.9524114298642719e-01  9.9476152063250756e-01  9.9480564429422325e-01  9.9385016599854481e-01  9.9465191817164744e-01  9.9521388179651615e-01  9.9452816466886207e-01  9.9518047164805523e-01  9.9448244723691781e-01  9.9525901288646523e-01  9.9327279046954264e-01  9.9598766465892674e-01  2.1267258631350664e-07  7.9366008107026041e-09  8.9281407444649846e-07  1.3308636515677855e-06  1.1042410138979898e-06  3.2314271004551103e-07  3.5460421162124466e-07  1.7431458449375307e-06  1.0938526287592318e-06  4.9201728089541273e-07  5.6045929160525037e-08  3.7346611652120255e-09  2.6344547934736953e-06  1.5857217046904253e-06  1.7653352980117111e-06  1.5123440401363278e-06  3.8505925083692263e-06  8.0014057605373957e-07  8.1624045355741187e-09  2.0706943100010184e-07  5.5474792455926298e