<?xml version="1.0"?>
<VTKFile type="UnstructuredGrid"  version="0.1"  >
<UnstructuredGrid>
<Piece  NumberOfPoints="15540" NumberOfCells="30546">
<Points>
<DataArray  type="Float64"  NumberOfComponents="3"  format="ascii">0 0 0  -0.5 -0.5 0  0.5 -0.5 0  0.5 0 0  0.5 0.5 0  -0.5 0.5 0  -0.5 0.0001 0  -0.5 -0.0001 0  0.5 0.1 0  0.5 -0.1 0  -0.5 -0.1 0  -0.5 0.1 0  -0.4900000000000277 -0.5 0  -0.4800000000000555 -0.5 0  -0.4700000000000832 -0.5 0  -0.4600000000001109 -0.5 0  -0.4500000000001387 -0.5 0  -0.4400000000001664 -0.5 0  -0.4300000000001942 -0.5 0  -0.4200000000002219 -0.5 0  -0.4100000000002497 -0.5 0  -0.4000000000002774 -0.5 0  -0.3900000000003052 -0.5 0  -0.3800000000003328 -0.5 0  -0.3700000000003606 -0.5 0  -0.3600000000003883 -0.5 0  -0.3500000000004161 -0.5 0  -0.3400000000004438 -0.5 0  -0.3300000000004716 -0.5 0  -0.3200000000004993 -0.5 0  -0.3100000000005271 -0.5 0  -0.3000000000005548 -0.5 0  -0.2900000000005825 -0.5 0  -0.2800000000006103 -0.5 0  -0.2700000000006381 -0.5 0  -0.2600000000006658 -0.5 0  -0.2500000000006935 -0.5 0  -0.2400000000007212 -0.5 0  -0.230000000000749 -0.5 0  -0.2200000000007767 -0.5 0  -0.2100000000008044 -0.5 0  -0.2000000000008322 -0.5 0  -0.19000000000086 -0.5 0  -0.1800000000008877 -0.5 0  -0.1700000000009154 -0.5 0  -0.1600000000009431 -0.5 0  -0.1500000000009709 -0.5 0  -0.1400000000009986 -0.5 0  -0.1300000000010264 -0.5 0  -0.1200000000010541 -0.5 0  -0.1100000000010818 -0.5 0  -0.1000000000011096 -0.5 0  -0.09000000000113734 -0.5 0  -0.08000000000116503 -0.5 0  -0.07000000000119283 -0.5 0  -0.06000000000122058 -0.5 0  -0.05000000000124827 -0.5 0  -0.04000000000127607 -0.5 0  -0.03000000000130376 -0.5 0  -0.02000000000133151 -0.5 0  -0.01000000000135925 -0.5 0  -1.376121439022882e-12 -0.5 0  0.009999999998640763 -0.5 0  0.01999999999866864 -0.5 0  0.02999999999869629 -0.5 0  0.03999999999872406 -0.5 0  0.04999999999875182 -0.5 0  0.05999999999877947 -0.5 0  0.06999999999880724 -0.5 0  0.079999999998835 -0.5 0  0.08999999999886266 -0.5 0  0.09999999999889042 -0.5 0  0.1099999999989182 -0.5 0  0.1199999999989459 -0.5 0  0.1299999999989737 -0.5 0  0.1399999999990014 -0.5 0  0.1499999999990291 -0.5 0  0.1599999999990568 -0.5 0  0.1699999999990847 -0.5 0  0.1799999999991124 -0.5 0  0.1899999999991401 -0.5 0  0.1999999999991678 -0.5 0  0.2099999999991955 -0.5 0  0.2199999999992234 -0.5 0  0.2299999999992511 -0.5 0  0.2399999999992788 -0.5 0  0.2499999999993066 -0.5 0  0.2599999999993342 -0.5 0  0.269999999999362 -0.5 0  0.2799999999993897 -0.5 0  0.2899999999994175 -0.5 0  0.2999999999994452 -0.5 0  0.3099999999994729 -0.5 0  0.3199999999995007 -0.5 0  0.3299999999995284 -0.5 0  0.3399999999995562 -0.5 0  0.3499999999995839 -0.5 0  0.3599999999996116 -0.5 0  0.3699999999996393 -0.5 0  0.379999999999667 -0.5 0  0.3899999999996949 -0.5 0  0.3999999999997226 -0.5 0  0.4099999999997503 -0.5 0  0.419999999999778 -0.5 0  0.4299999999998058 -0.5 0  0.4399999999998336 -0.5 0  0.4499999999998613 -0.5 0  0.4599999999998891 -0.5 0  0.4699999999999167 -0.5 0  0.4799999999999445 -0.5 0  0.4899999999999722 -0.5 0  0.5 -0.4902110204681464 0  0.5 -0.4804459958734807 0  0.5 -0.4707048677450883 0  0.5 -0.4609875815766065 0  0.5 -0.4512940759251849 0  0.5 -0.4416242912883993 0  0.5 -0.4319781678689807 0  0.5 -0.4223556545383647 0  0.5 -0.4127566896324213 0  0.5 -0.4031812128200121 0  0.5 -0.3936291733057916 0  0.5 -0.3841005081172659 0  0.5 -0.3745951585781932 0  0.5 -0.3651130778999337 0  0.5 -0.3556541993788045 0  0.5 -0.3462184677228392 0  0.5 -0.3368058273705318 0  0.5 -0.3274162224888609 0  0.5 -0.3180495969712945 0  0.5 -0.3087058944357755 0  0.5 -0.299385058222682 0  0.5 -0.2900870313927414 0  0.5 -0.2808117567250807 0  0.5 -0.2715591844628491 0  0.5 -0.2623292564012653 0  0.5 -0.253121909553727 0  0.5 -0.2439371050851549 0  0.5 -0.2347747685524501 0  0.5 -0.2256348634421331 0  0.5 -0.2165173209784076 0  0.5 -0.207422087829958 0  0.5 -0.1983491207029381 0  0.5 -0.1892983550950482 0  0.5 -0.1802697378305253 0  0.5 -0.1712632154965152 0  0.5 -0.1622787344187354 0  0.5 -0.1533162406595534 0  0.5 -0.1443756800160514 0  0.5 -0.1354569980180493 0  0.5 -0.1265601399261414 0  0.5 -0.1176850622761093 0  0.5 -0.1088317009011999 0  0.5 -0.09166666666668973 0  0.5 -0.08333333333337943 0  0.5 -0.07500000000006915 0  0.5 -0.06666666666675886 0  0.5 -0.05833333333344858 0  0.5 -0.05000000000013693 0  0.5 -0.04166666666678191 0  0.5 -0.03333333333342643 0  0.5 -0.02500000000006916 0  0.5 -0.01666666666671188 0  0.5 -0.00833333333335548 0  0.5 0.008333333333318314 0  0.5 0.01666666666663358 0  0.5 0.02499999999994162 0  0.5 0.03333333333325101 0  0.5 0.04166666666655769 0  0.5 0.04999999999986843 0  0.5 0.05833333333322258 0  0.5 0.06666666666657715 0  0.5 0.07499999999993352 0  0.5 0.08333333333328992 0  0.5 0.09166666666664541 0  0.5 0.1088317009011616 0  0.5 0.1176850622760307 0  0.5 0.1265601399260203 0  0.5 0.1354569980178909 0  0.5 0.1443756800158549 0  0.5 0.153316240659315 0  0.5 0.1622787344184454 0  0.5 0.1712632154961752 0  0.5 0.1802697378301332 0  0.5 0.1892983550946039 0  0.5 0.1983491207024433 0  0.5 0.2074220878294123 0  0.5 0.216517320977811 0  0.5 0.2256348634414833 0  0.5 0.2347747685517479 0  0.5 0.2439371050844009 0  0.5 0.2531219095529224 0  0.5 0.2623292564004089 0  0.5 0.2715591844619371 0  0.5 0.2808117567241139 0  0.5 0.290087031391723 0  0.5 0.2993850582216101 0  0.5 0.3087058944347426 0  0.5 0.3180495969703129 0  0.5 0.3274162224879299 0  0.5 0.3368058273696494 0  0.5 0.3462184677220051 0  0.5 0.3556541993780186 0  0.5 0.3651130778991989 0  0.5 0.3745951585775107 0  0.5 0.3841005081166359 0  0.5 0.3936291733052134 0  0.5 0.4031812128194852 0  0.5 0.412756689631945 0  0.5 0.4223556545379392 0  0.5 0.431978167868607 0  0.5 0.4416242912880781 0  0.5 0.4512940759249164 0  0.5 0.4609875815763912 0  0.5 0.4707048677449264 0  0.5 0.4804459958733726 0  0.5 0.4902110204680924 0  0.4900000000000277 0.5 0  0.4800000000000555 0.5 0  0.4700000000000832 0.5 0  0.4600000000001109 0.5 0  0.4500000000001387 0.5 0  0.4400000000001664 0.5 0  0.4300000000001942 0.5 0  0.4200000000002219 0.5 0  0.4100000000002497 0.5 0  0.4000000000002774 0.5 0  0.3900000000003052 0.5 0  0.3800000000003328 0.5 0  0.3700000000003606 0.5 0  0.3600000000003883 0.5 0  0.3500000000004161 0.5 0  0.3400000000004438 0.5 0  0.3300000000004716 0.5 0  0.3200000000004993 0.5 0  0.3100000000005271 0.5 0  0.3000000000005548 0.5 0  0.2900000000005825 0.5 0  0.2800000000006103 0.5 0  0.2700000000006381 0.5 0  0.2600000000006658 0.5 0  0.2500000000006935 0.5 0  0.2400000000007212 0.5 0  0.230000000000749 0.5 0  0.2200000000007767 0.5 0  0.2100000000008044 0.5 0  0.2000000000008322 0.5 0  0.19000000000086 0.5 0  0.1800000000008877 0.5 0  0.1700000000009154 0.5 0  0.1600000000009431 0.5 0  0.1500000000009709 0.5 0  0.1400000000009986 0.5 0  0.1300000000010264 0.5 0  0.1200000000010541 0.5 0  0.1100000000010818 0.5 0  0.1000000000011096 0.5 0  0.09000000000113734 0.5 0  0.08000000000116503 0.5 0  0.07000000000119283 0.5 0  0.06000000000122058 0.5 0  0.05000000000124827 0.5 0  0.04000000000127607 0.5 0  0.03000000000130376 0.5 0  0.02000000000133151 0.5 0  0.01000000000135925 0.5 0  1.376121439022882e-12 0.5 0  -0.009999999998640763 0.5 0  -0.01999999999866864 0.5 0  -0.02999999999869629 0.5 0  -0.03999999999872406 0.5 0  -0.04999999999875182 0.5 0  -0.05999999999877947 0.5 0  -0.06999999999880724 0.5 0  -0.079999999998835 0.5 0  -0.08999999999886266 0.5 0  -0.09999999999889042 0.5 0  -0.1099999999989182 0.5 0  -0.1199999999989459 0.5 0  -0.1299999999989737 0.5 0  -0.1399999999990014 0.5 0  -0.1499999999990291 0.5 0  -0.1599999999990568 0.5 0  -0.1699999999990847 0.5 0  -0.1799999999991124 0.5 0  -0.1899999999991401 0.5 0  -0.1999999999991678 0.5 0  -0.2099999999991955 0.5 0  -0.2199999999992234 0.5 0  -0.2299999999992511 0.5 0  -0.2399999999992788 0.5 0  -0.2499999999993066 0.5 0  -0.2599999999993342 0.5 0  -0.269999999999362 0.5 0  -0.2799999999993897 0.5 0  -0.2899999999994175 0.5 0  -0.2999999999994452 0.5 0  -0.3099999999994729 0.5 0  -0.3199999999995007 0.5 0  -0.3299999999995284 0.5 0  -0.3399999999995562 0.5 0  -0.3499999999995839 0.5 0  -0.3599999999996116 0.5 0  -0.3699999999996393 0.5 0  -0.379999999999667 0.5 0  -0.3899999999996949 0.5 0  -0.3999999999997226 0.5 0  -0.4099999999997503 0.5 0  -0.419999999999778 0.5 0  -0.4299999999998058 0.5 0  -0.4399999999998336 0.5 0  -0.4499999999998613 0.5 0  -0.4599999999998891 0.5 0  -0.4699999999999167 0.5 0  -0.4799999999999445 0.5 0  -0.4899999999999722 0.5 0  -0.5 0.4902110204681464 0  -0.5 0.4804459958734807 0  -0.5 0.4707048677450883 0  -0.5 0.4609875815766065 0  -0.5 0.4512940759251849 0  -0.5 0.4416242912883993 0  -0.5 0.4319781678689807 0  -0.5 0.4223556545383647 0  -0.5 0.4127566896324213 0  -0.5 0.4031812128200121 0  -0.5 0.3936291733057916 0  -0.5 0.3841005081172659 0  -0.5 0.3745951585781932 0  -0.5 0.3651130778999337 0  -0.5 0.3556541993788045 0  -0.5 0.3462184677228392 0  -0.5 0.3368058273705318 0  -0.5 0.3274162224888609 0  -0.5 0.3180495969712945 0  -0.5 0.3087058944357755 0  -0.5 0.299385058222682 0  -0.5 0.2900870313927414 0  -0.5 0.2808117567250807 0  -0.5 0.2715591844628491 0  -0.5 0.2623292564012653 0  -0.5 0.253121909553727 0  -0.5 0.2439371050851549 0  -0.5 0.2347747685524501 0  -0.5 0.2256348634421331 0  -0.5 0.2165173209784076 0  -0.5 0.207422087829958 0  -0.5 0.1983491207029381 0  -0.5 0.1892983550950482 0  -0.5 0.1802697378305253 0  -0.5 0.1712632154965152 0  -0.5 0.1622787344187354 0  -0.5 0.1533162406595534 0  -0.5 0.1443756800160514 0  -0.5 0.1354569980180493 0  -0.5 0.1265601399261414 0  -0.5 0.1176850622761093 0  -0.5 0.1088317009011999 0  -0.5 0.09167500000001694 0  -0.5 0.08335000000003931 0  -0.5 0.07502500000006167 0  -0.5 0.06670000000008947 0  -0.5 0.05837500000011001 0  -0.5 0.0500500000001328 0  -0.5 0.0417250000001127 0  -0.5 0.03340000000008944 0  -0.5 0.02507500000006573 0  -0.5 0.01675000000004653 0  -0.5 0.008425000000027341 
[...]
<PointData  Scalars="f_31"> 
<DataArray  type="Float64"  Name="f_31"  format="ascii">1.0000000000000000e+00  1.7128619018260355e-09  2.7276558282710260e-06  9.9493410611827593e-01  1.1949691863264715e-06  1.6885384774523581e-08  1.0000000000000000e+00  1.0000000000000000e+00  2.0821962064347444e-03  1.1727279736776064e-03  1.1821039795057897e-03  1.1815697120156077e-03  1.9030162096322299e-09  2.3680024926556462e-09  2.9805321739065414e-09  3.6518123898462852e-09  4.2935165335448489e-09  4.9149957535375661e-09  5.5140339704930331e-09  6.1364599459761846e-09  6.7368448485394269e-09  7.3571160148812388e-09  8.0028049573826718e-09  8.7295212334597129e-09  9.4997828853877430e-09  1.0339573231567937e-08  1.1274193116673461e-08  1.2327094856626883e-08  1.3558104920380059e-08  1.4888730435630981e-08  1.6382512289924954e-08  1.8070123076258328e-08  1.9871542608304689e-08  2.1857219128684513e-08  2.4096664534521557e-08  2.6444331689879144e-08  2.9037736155139637e-08  3.1847773469381149e-08  3.4880512277588231e-08  3.8225136333784335e-08  4.1709062501637111e-08  4.5552683518420347e-08  4.9600031475550052e-08  5.3931876420259000e-08  5.8533636303936951e-08  6.3470254401923400e-08  6.8689344911568829e-08  7.4170482084399445e-08  7.9964599478013187e-08  8.6091197963672891e-08  9.2512055879350962e-08  9.9181015820452770e-08  1.0620321557753488e-07  1.1355372452041816e-07  1.2110021165347445e-07  1.2902682325260555e-07  1.3716847195777111e-07  1.4570958820663251e-07  1.5439225180334408e-07  1.6334903613909503e-07  1.7264095846296497e-07  1.8210814987638684e-07  1.9182220277095814e-07  2.0176547879740105e-07  2.1203262209201809e-07  2.2251197108989235e-07  2.3300779409424717e-07  2.4374812261190800e-07  2.5472289813230615e-07  2.6593670563064077e-07  2.7729930525626478e-07  2.8876558220805879e-07  3.0063963157963768e-07  3.1274653325284877e-07  3.2478608572980276e-07  3.3714897514653671e-07  3.4980903462584800e-07  3.6249951465390510e-07  3.7567564226662777e-07  3.8893615154441968e-07  4.0249865800210722e-07  4.1648889368655694e-07  4.3085707579300120e-07  4.4564576253893991e-07  4.6082719984849126e-07  4.7627206415772626e-07  4.9234233612052313e-07  5.0913005411078057e-07  5.2643021518160044e-07  5.4460725702159617e-07  5.6389526854787457e-07  5.8393385214299368e-07  6.0546739120776473e-07  6.2798906373458328e-07  6.5193818479872208e-07  6.7782466213718206e-07  7.0613719993816538e-07  7.3668702996509794e-07  7.7033500933369573e-07  8.0842641587038253e-07  8.5061874468495677e-07  8.9932178535968031e-07  9.5539001670361797e-07  1.0235891890377526e-06  1.1040076673935725e-06  1.2053816671240694e-06  1.3353132784586847e-06  1.5062192126926427e-06  1.7303566288151657e-06  2.0243163166521389e-06  2.4040533673804825e-06  2.5273211286824158e-06  2.1717737991972253e-06  1.8942624966272113e-06  1.6775173742704038e-06  1.5223591788193999e-06  1.4081484170195412e-06  1.3241169278864620e-06  1.2595895545609935e-06  1.2091946151132147e-06  1.1699372841712186e-06  1.1380632411310128e-06  1.1128494630437987e-06  1.0921887347248932e-06  1.0759298052040040e-06  1.0623535992808438e-06  1.0512221092500056e-06  1.0424542449109778e-06  1.0353219053973574e-06  1.0295441755345410e-06  1.0253858439370202e-06  1.0224799701065285e-06  1.0213449937353206e-06  1.0223485414660972e-06  1.0265840523692867e-06  1.0361282051602913e-06  1.0546697645103664e-06  1.0896300381435255e-06  1.1509410387583707e-06  1.2667830851098549e-06  1.4796453459237447e-06  1.8648572515371118e-06  2.5922229315497352e-06  3.8985490669070663e-06  6.3038276744256882e-06  1.0584180275312006e-05  1.8721842604209935e-05  3.3552893334573938e-05  6.0799105022150683e-05  1.0978625970697391e-04  1.9717691997230065e-04  3.5940650141215674e-04  6.5190563204868719e-04  2.0749007602542139e-03  3.6546411595639243e-03  6.4448775526580182e-03  1.1190249733610602e-02  1.9598586878690566e-02  3.4403783935138071e-02  6.0183919425259171e-02  1.0528259285008239e-01  1.8362729691281010e-01  3.2597047014511399e-01  5.7233261013744618e-01  9.8560349593916563e-01  5.7415207638151622e-01  3.3095114874653497e-01  1.8529728814333379e-01  1.0560584625470955e-01  6.0394821253176023e-02  3.4441806881936307e-02  1.9668335797431186e-02  1.1174395579093551e-02  6.4676337361493008e-03  3.6828780168550006e-03  1.1568361803410115e-03  6.3747968441571468e-04  3.4949755600162993e-04  1.9430577125537687e-04  1.0729178915116440e-04  5.8889198490633338e-05  3.2546706891915564e-05  1.8087870184401429e-05  1.0495148099449845e-05  6.2354256000314056e-06  3.9207318660797361e-06  2.6378040254514157e-06  1.9601021515338391e-06  1.5872693786388006e-06  1.3861032077526960e-06  1.2804024852998150e-06  1.2210214414898529e-06  1.1898894655807737e-06  1.1738172749458341e-06  1.1660661238843210e-06  1.1627925457403302e-06  1.1625148888482534e-06  1.1627973729457685e-06  1.1647651746348018e-06  1.1664911119790202e-06  1.1687054839731227e-06  1.1716248753920270e-06  1.1734978460276612e-06  1.1757849959337324e-06  1.1782649088078009e-06  1.1806129548819021e-06  1.1826897658753187e-06  1.1845456866661933e-06  1.1864883811460044e-06  1.1882455097170521e-06  1.1898276065800945e-06  1.1910653644636305e-06  1.1923546685667352e-06  1.1932473441843310e-06  1.1945925249300631e-06  1.1943102085814245e-06  1.1948661164725151e-06  1.1869173042229436e-06  1.1699795964651199e-06  1.1485836874268558e-06  1.1251477558542060e-06  1.1007560899532303e-06  1.0763810775612428e-06  1.0524921748262369e-06  1.0292331405479750e-06  1.0061623374671290e-06  9.8374862048002180e-07  9.6194368350454218e-07  9.4079756511408529e-07  9.1984181370160038e-07  8.9965046413604220e-07  8.7986646966456898e-07  8.6037663480726496e-07  8.4136716372798395e-07  8.2272019462857496e-07  8.0448103188324424e-07  7.8627375286968130e-07  7.6854494835394990e-07  7.5087291093798265e-07  7.3353349435076407e-07  7.1604427397704804e-07  6.9885718472338975e-07  6.8186177548182127e-07  6.6465847579910306e-07  6.4758191332008008e-07  6.3010712179517876e-07  6.1289854877125740e-07  5.9552829587933169e-07  5.7809058023437640e-07  5.6039429223645286e-07  5.4258965746303476e-07  5.2469452325911846e-07  5.0670083811546396e-07  4.8859035049624633e-07  4.7037028206906194e-07  4.5197339158727506e-07  4.3322246908118993e-07  4.1467999998051862e-07  3.9609675903318564e-07  3.7757939282280006e-07  3.5920513678241173e-07  3.4071327447597201e-07  3.2262695858526070e-07  3.0440792774058209e-07  2.8648307472255424e-07  2.6897809036236294e-07  2.5190001330577246e-07  2.3526787993281835e-07  2.1880636699056616e-07  2.0318604779614097e-07  1.8791603070338270e-07  1.7316583905076247e-07  1.5922083405348852e-07  1.4571533552116447e-07  1.3291779914665940e-07  1.2084299795333429e-07  1.0937178936198266e-07  9.8715051257667390e-08  8.8623198379826887e-08  7.9283722827577773e-08  7.0580562497812779e-08  6.2551574845785499e-08  5.5132327046679723e-08  4.8263418848302849e-08  4.2104173904780765e-08  3.6406340558634969e-08  3.1289912795340455e-08  2.6657190330455064e-08  2.2530726543802812e-08  1.8814121188741788e-08  1.5562313868877273e-08  1.2657944160993324e-08  1.0136188833460900e-08  7.9876688338448281e-09  6.1236804155110020e-09  4.5783386674250387e-09  3.2969357944796310e-09  2.2837222622796976e-09  1.5251745596420509e-09  9.9999478945359283e-10  7.0741655278161821e-10  6.2404221283839724e-10  7.3731491868231422e-10  1.0350419828372021e-09  1.4987725197805989e-09  2.1190284605978519e-09  2.8781869740636161e-09  3.7971922491446995e-09  4.8707883677212699e-09  6.1252051043601843e-09  7.5306374740982619e-09  9.1387089135817728e-09  1.0882107930822542e-08  1.2770685296858032e-08  1.4608057477642947e-08  1.6123732026478035e-08  1.6887384341606648e-08  1.6832195477570597e-08  1.6799926258734199e-08  1.6610301409699002e-08  1.6463837506883410e-08  1.6275087271442137e-08  1.6035976506546793e-08  1.5791313022235915e-08  1.5477823291921370e-08  1.5169556173418356e-08  1.4827440060420025e-08  1.4456802886206891e-08  1.4048285485679008e-08  1.3616684022787831e-08  1.3173437993521997e-08  1.2722105054903217e-08  1.2280047668065233e-08  1.1864467137353827e-08  1.1530057813927506e-08  1.1392544589301934e-08  1.1613822322023022e-08  1.2499219399811522e-08  1.4679193395685498e-08  1.9289980672378211e-08  2.8331534260663122e-08  4.5638752383352384e-08  7.8080666814181055e-08  1.3929593970304338e-07  2.5337593563801876e-07  4.6420674650124964e-07  8.5347038635392827e-07  1.5608176905880369e-06  2.8731280658766623e-06  5.2967313373181652e-06  9.6257421375176014e-06  1.7807401742055026e-05  3.2580636956027097e-05  5.9489798305996109e-05  1.0813384991166397e-04  1.9581923029612458e-04  3.5979696436911214e-04  6.5481784339020005e-04  2.0961165101407767e-03  3.6840474812105473e-03  6.4858480901990060e-03  1.1256664962870862e-02  1.9737252564595919e-02  3.4720941322926725e-02  6.0782049344330263e-02  1.0622165162467309e-01  1.8493003603581437e-01  3.2702515526337506e-01  5.7160142369721256e-01  1.0000000000000000e+00  1.0000000000000000e+00  1.0000000000000000e+00  1.0000000000000000e+00  1.0000000000000000e+00  1.0000000000000000e+00  1.0000000000000000e+00  1.0000000000000000e+00  1.0000000000000000e+00  1.0000000000000000e+00  1.0000000000000000e+00  1.0000000000000000e+00  1.0000000000000000e+00  1.0000000000000000e+00  1.0000000000000000e+00  1.0000000000000000e+00  1.0000000000000000e+00  1.0000000000000000e+00  1.0000000000000000e+00  1.0000000000000000e+00  1.0000000000000000e+00  1.0000000000000000e+00  1.0000000000000000e+00  1.0000000000000000e+00  1.0000000000000000e+00  1.0000000000000000e+00  1.0000000000000000e+00  1.0000000000000000e+00  1.0000000000000000e+00  1.0000000000000000e+00  1.0000000000000000e+00  1.0000000000000000e+00  1.0000000000000000e+00  1.0000000000000000e+00  1.0000000000000000e+00  1.0000000000000000e+00  1.0000000000000000e+00  1.0000000000000000e+00  1.0000000000000000e+00  1.0000000000000000e+00  1.0000000000000000e+00  1.0000000000000000e+00  9.9999999999999989e-01  1.0000000000000000e+00  1.0000000000000000e+00  1.0000000000000000e+00  1.0000000000000000e+00  1.0000000000000000e+00  1.0000000000000000e+00  1.0000000000000000e+00  1.0000000000000000e+00  1.0000000000000000e+00  1.0000000000000000e+00  1.0000000000000000e+00  1.0000000000000000e+00  1.0000000000000000e+00  1.0000000000000000e+00  1.0000000000000000e+00  1.0000000000000000e+00  1.0000000000000000e+00  1.0000000000000000e+00  1.0000000000000000e+00  1.0000000000000000e+00  1.0000000000000000e+00  1.0000000000000000e+00  1.0000000000000000e+00  1.0000000000000000e+00  1.0000000000000000e+00  1.0000000000000000e+00  1.0000000000000000e+00  1.0000000000000000e+00  1.0000000000000000e+00  1.0000000000000000e+00  1.0000000000000000e+00  1.0000000000000000e+00  1.0000000000000000e+00  1.0000000000000000e+00  1.0000000000000000e+00  1.0000000000000000e+00  1.0000000000000000e+00  1.0000000000000000e+00  1.0000000000000000e+00  1.0000000000000000e+00  1.0000000000000000e+00  1.0000000000000000e+00  1.0000000000000000e+00  1.0000000000000000e+00  1.0000000000000000e+00  1.0000000000000000e+00  1.0000000000000000e+00  1.0000000000000000e+00  1.0000000000000000e+00  1.0000000000000000e+00  1.0000000000000000e+00  1.0000000000000000e+00  1.0000000000000000e+00  1.0000000000000000e+00  1.0000000000000000e+00  1.0000000000000000e+00  1.0000000000000000e+00  1.0000000000000000e+00  1.0000000000000000e+00  1.0000000000000000e+00  1.0000000000000000e+00  1.0000000000000000e+00  1.0000000000000000e+00  1.0000000000000000e+00  1.0000000000000000e+00  1.0000000000000000e+00  1.0000000000000000e+00  5.7157081540549382e-01  3.2704024578184687e-01  1.8489315725355590e-01  1.0623927488475966e-01  6.0789268504032296e-02  3.4726290635339246e-02  1.9744685374571708e-02  1.1258434719474622e-02  6.4895802952421588e-03  3.6859954580784910e-03  2.0973560389370709e-03  6.5513217893579186e-04  3.5991696298496163e-04  1.9537157359123257e-04  1.0819485636990739e-04  5.9557078709463147e-05  3.2618825386718484e-05  1.7822871029808003e-05  9.6357775960197975e-06  5.2998186282404734e-06  2.8742057204517417e-06  1.5616122476262323e-06  8.5409977369361254e-07  4.6469240765772115e-07  2.5352462231261466e-07  1.3921000474887035e-07  7.7791168804615508e-08  4.5136699805974715e-08  2.7604405673274614e-08  1.8288114749129456e-08  1.3369648604959823e-08  1.0843647045090589e-08  9.5636002878188064e-09  8.9033520249792796e-09  8.5462309289311664e-09  8.3330707385444943e-09  8.1597726308589507e-09  7.9751932982316986e-09  7.7406027269637921e-09  7.4514417072991379e-09  7.1200982864210479e-09  6.7220144291481923e-09  6.2704394617743407e-09  5.7717367055790279e-09  5.2264834085872045e-09  4.6669708902106429e-09  4.1204741912034897e-09  3.5617771467676379e-09  3.0124197839761502e-09  2.5238855361952592e-09  2.0966950817976632e-09  1.8829384867733787e-09  1.7408522407481587e-09  1.1789204841119584e-03  1.1823896212955892e-03  1.1825378427356278e-03  1.1783922410992195e-03  1.1725500748295786e-03  1.1865520929815849e-03  1.1823446395545052e-03  1.1649287559510452e-03  1.1761303138842153e-03  1.1877959706723493e-03  1.1644085608984742e-03  1.1772143700038516e-03  1.1866796146799367e-03  1.1848101747398278e-03  1.1827275589641330e-03  1.1728084377786098e-03  1.1708288576189301e-03  1.1599255440722944e-03  1.1781975972294683e-03  1.1818608772275567e-03  1.1710668219736826e-03  1.1707879223870825e-03  1.1852158013350620e-03  1.1857320762298730e-03  1.1735560142966646e-03  1.1765846395597268e-03  1.1783774185195476e-03  1.1720845729636512e-03  1.1845680811330356e-03  1.1781994921988453e-03  1.1702468203447505e-03  1.1758002208046871e-03  1.1763656585868660e-03  1.1653857852876380e-03  1.1765437740406028e-03  1.1925438754574770e-03  1.1657455865482420e-03  1.1823811684519841e-03  1.1817498924886120e-03  1.1674914553492599e-03  1.1922188974131025e-03  1.1867570182247174e-03  1.1722684651639789e-03  1.1877553336568905e-03  1.1776430951132193e-03  1.1860651652228621e-03  1.2155660159708624e-03  1.2378310876406718e-03  1.2542119266858907e-03  1.3073187969369841e-03  1.3635303321223064e-03  1.4195304396820085e-03  1.5296015561006998e-03  1.6181146002033761e-03  1.7098282721762093e-03  1.8246091982981178e-03  1.9017686018118953e-03  1.9486415906032532e-03  2.0431869218829014e-03  2.0703785476408622e-03  2.0793685116726928e-03  2.1043683529438899e-03  2.0666818395314646e-03  2.0825373447037410e-03  2.0818317697433035e-03  2.0762089827453304e-03  2.0538324660384021e-03  2.0164032678875216e-03  2.0444479851536874e-03  2.0489480063812502e-03  2.0363675326194892e-03  2.0205496099454223e-03  2.0230011193744343e-03  2.0169183129301414e-03  1.9836947523119157e-03  2.0002325859007661e-03  1.9893214216335866e-03  1.9695721746960377e-03  1.9886546996016620e-03  1.9764658956530272e-03  1.9623345310777213e-03  1.9858922655956813e-03  1.9958015858241242e-03  1.9756839397392224e-03  1.9687350295417940e-03  2.0182089675057492e-03  2.0116995005996412e-03  2.0136661903038646e-03  2.0137823188165439e-03  1.9874865680516349e-03  2.0098060411918362e-03  2.0266471423858873e-03  2.0271518079123057e-03  2.0280583527252289e-03  1.9971801707600683e-03  2.0261030541965453e-03  2.0422716950830536e-03  2.0517211683179666e-03  2.0412790362743681e-03  2.0464755021970728e-03  2.0587243598993131e-03  2.0704445533618727e-03  2.0718560788261738e-03  2.0853638796511655e-03  2.0956870339574724e-03  2.0850738849429755e-03  2.0905196925699145e-03  2.0858525378004600e-03  2.0669994654800828e-03  2.0963216277911519e-03  2.1103230972821362e-03  1.1794953667648611e-03  1.1825744472974712e-03  1.1827081532704651e-03  1.1785089420221875e-03  1.1727013861775896e-03  1.1871304805087092e-03  1.1825191628740080e-03  1.1653070147394421e-03  1.1759464268518139e-03  1.1871416348216860e-03  1.1659242315068678e-03  1.1762302220687582e-03  1.1856519404660889e-03  1.1836512846357999e-03  1.1814982377908124e-03  1.1721851544414900e-03  1.1690812992716693e-03  1.1560852133838937e-03  1.1758514143647748e-03  1.1836950272187297e-03  1.1735517929760250e-03  1.1746545158162515e-03  1.1869494793603150e-03  1.1876850104581571e-03  1.1745471751379694e-03  1.1772744962350729e-03  1.1795160159390396e-03  1.1732253424780927e-03  1.1848458165632898e-03  1.1787049840508437e-03  1.1700870182697069e-03  1.1742569656802372e-03  1.1733524895996611e-03  1.1623197166497987e-03  1.1733670231941717e-03  1.1899299224398590e-03  1.1625893524517708e-03  1.1791155868770685e-03  1.1773936014265653e-03  1.1627047473376487e-03  1.1881375918862656e-03  1.1816223166498223e-03  1.1669657853191058e-03  1.1812397256314583e-03  1.1665869732533937e-03  1.1665052561957755e-03  1.1815087601607429e-03  1.1826964969715308e-03  1.1675903058531506e-03  1.1770015338411191e-03  1.1772512369658179e-03  1.1600242342701171e-03  1.1784313287491347e-03  1.1754979678969568e-03  1.1680414736530366e-03  1.1772197349294025e-03  1.1732760605156329e-03  1.1577628861058470e-03  1.1795952745388184e-03  1.1751554819627839e-03  1.1676658582995649e-03  1.1773641715218980e-03  1.1560443578888353e-03  1.1666872798867588e-03  1.1694303495865745e-03  1.1695868699004291e-03  1.1606746980606553e-03  1.1439176809527097e-03  1.1647279410700020e-03  1.1733613299988246e-03  1.1719501771487329e-03  1.1664805012661405e-03  1.1742535473900366e-03  1.1763916314120944e-03  1.1627341188558528e-03  1.1779168785788201e-03  1.1764704982009013e-03  1.1684547721666114e-03  1.1816785965818564e-03  1.1740793689105533e-03  1.1630805349042924e-03  1.1731594153908296e-03  1.1742022150198852e-03  1.1598480174496680e-03  1.1492653086968901e-03  1.1737816648994624e-03  1.1673345045323587e-03  1.1678011255513267e-03  1.1690100785430575e-03  1.1552709803547892e-03  1.1688942212961966e-03  1.1786415267872581e-03  1.1766016662547473e-03  1.1727140588465258e-03  1.1510209067204457e-03  1.1651002887625545e-03  1.1724861629089506e-03  1.1766644141862157e-03  1.1681039780577290e-03  1.1678086667695630e-03  1.1701877760339850e-03  1.1723593751827932e-03  1.1699445106655563e-03  1.1750402879051429e-03  1.1795523134769924e-03  1.1735814857812981e-03  1.1756102424038083e-03  1.1735419874241645e-03  1.1622890521169262e-03  1.1797454244392863e-03  1.1893811995847103e-03  9.9232770584726526e-01  9.9774183929296933e-01  9.9358207690914357e-01  9.9504191681723642e-01  9.9575394839276743e-01  9.9517780219165553e-01  9.9563354478876420e-01  9.9601597338351988e-01  9.9489401522796883e-01  9.9538112384964050e-01  9.9402848086679141e-01  9.9715944028298564e-01  9.9448518258925400e-01  9.9620363004358115e-01  9.9564693401496029e-01  9.9614028995026294e-01  9.9595871432152838e-01  9.9588062470602201e-01  9.9614418004135841e-01  9.9612267857540815e-01  9.9621755723852834e-01  9.9631936777764152e-01  9.9637048307475229e-01  9.9666432657062309e-01  9.9667074057512439e-01  9.9489431301132758e-01  9.9824588607141607e-01  9.9536283391053537e-01  9.9679321718822833e-01  9.9562015330579123e-01  9.9491331973454800e-01  9.9498506580168666e-01  9.9569889902767272e-01  9.9679039514829382e-01  9.9533355824172587e-01  9.9842347524570219e-01  9.9497762490996133e-01  9.9498117065248981e-01  9.9800042310456161e-01  9.9444373266696839e-01  9.9535252957544396e-01  9.9510010329969178e-01  9.9627649436683696e-01  9.9590431293891279e-01  9.9548197738347599e-01  9.9556826206199234e-01  9.9470097012141623e-01  9.9540176146092518e-01  9.9588916456731880e-01  9.9527861336441881e-01  9.9589105111859400e-01  9.9524313710253076e-01  9.9593784708125799e-01  9.9416148846433461e-01  9.9654870320241873e-01  1.2755336376669415e-07  5.5438412787188578e-09  5.3065928730284379e-07  7.8871906075200735e-07  8.4446469897611534e-07  3.1198699598802972e-07  3.5126439152992719e-07  1.2629770173008053e-06  6.4736710589901932e-07  2.9233449390292221e-07  3.3208025502340777e-08  2.1939848084334184e-09  2.0430475478642963e-06  9.3880750625931726e-07  1.6837108106434286e-06  1.5099207010504166e-06  3.4152554951689650e-06  4.7427126367892062e-07  4.7564764337656576e-09  1.2333681714562099e-07  5.0285003753620706e