<?xml version="1.0"?>
<VTKFile type="UnstructuredGrid"  version="0.1"  >
<UnstructuredGrid>
<Piece  NumberOfPoints="15540" NumberOfCells="30546">
<Points>
<DataArray  type="Float64"  NumberOfComponents="3"  format="ascii">0 0 0  -0.5 -0.5 0  0.5 -0.5 0  0.5 0 0  0.5 0.5 0  -0.5 0.5 0  -0.5 0.0001 0  -0.5 -0.0001 0  0.5 0.1 0  0.5 -0.1 0  -0.5 -0.1 0  -0.5 0.1 0  -0.4900000000000277 -0.5 0  -0.4800000000000555 -0.5 0  -0.4700000000000832 -0.5 0  -0.4600000000001109 -0.5 0  -0.4500000000001387 -0.5 0  -0.4400000000001664 -0.5 0  -0.4300000000001942 -0.5 0  -0.4200000000002219 -0.5 0  -0.4100000000002497 -0.5 0  -0.4000000000002774 -0.5 0  -0.3900000000003052 -0.5 0  -0.3800000000003328 -0.5 0  -0.3700000000003606 -0.5 0  -0.3600000000003883 -0.5 0  -0.3500000000004161 -0.5 0  -0.3400000000004438 -0.5 0  -0.3300000000004716 -0.5 0  -0.3200000000004993 -0.5 0  -0.3100000000005271 -0.5 0  -0.3000000000005548 -0.5 0  -0.2900000000005825 -0.5 0  -0.2800000000006103 -0.5 0  -0.2700000000006381 -0.5 0  -0.2600000000006658 -0.5 0  -0.2500000000006935 -0.5 0  -0.2400000000007212 -0.5 0  -0.230000000000749 -0.5 0  -0.2200000000007767 -0.5 0  -0.2100000000008044 -0.5 0  -0.2000000000008322 -0.5 0  -0.19000000000086 -0.5 0  -0.1800000000008877 -0.5 0  -0.1700000000009154 -0.5 0  -0.1600000000009431 -0.5 0  -0.1500000000009709 -0.5 0  -0.1400000000009986 -0.5 0  -0.1300000000010264 -0.5 0  -0.1200000000010541 -0.5 0  -0.1100000000010818 -0.5 0  -0.1000000000011096 -0.5 0  -0.09000000000113734 -0.5 0  -0.08000000000116503 -0.5 0  -0.07000000000119283 -0.5 0  -0.06000000000122058 -0.5 0  -0.05000000000124827 -0.5 0  -0.04000000000127607 -0.5 0  -0.03000000000130376 -0.5 0  -0.02000000000133151 -0.5 0  -0.01000000000135925 -0.5 0  -1.376121439022882e-12 -0.5 0  0.009999999998640763 -0.5 0  0.01999999999866864 -0.5 0  0.02999999999869629 -0.5 0  0.03999999999872406 -0.5 0  0.04999999999875182 -0.5 0  0.05999999999877947 -0.5 0  0.06999999999880724 -0.5 0  0.079999999998835 -0.5 0  0.08999999999886266 -0.5 0  0.09999999999889042 -0.5 0  0.1099999999989182 -0.5 0  0.1199999999989459 -0.5 0  0.1299999999989737 -0.5 0  0.1399999999990014 -0.5 0  0.1499999999990291 -0.5 0  0.1599999999990568 -0.5 0  0.1699999999990847 -0.5 0  0.1799999999991124 -0.5 0  0.1899999999991401 -0.5 0  0.1999999999991678 -0.5 0  0.2099999999991955 -0.5 0  0.2199999999992234 -0.5 0  0.2299999999992511 -0.5 0  0.2399999999992788 -0.5 0  0.2499999999993066 -0.5 0  0.2599999999993342 -0.5 0  0.269999999999362 -0.5 0  0.2799999999993897 -0.5 0  0.2899999999994175 -0.5 0  0.2999999999994452 -0.5 0  0.3099999999994729 -0.5 0  0.3199999999995007 -0.5 0  0.3299999999995284 -0.5 0  0.3399999999995562 -0.5 0  0.3499999999995839 -0.5 0  0.3599999999996116 -0.5 0  0.3699999999996393 -0.5 0  0.379999999999667 -0.5 0  0.3899999999996949 -0.5 0  0.3999999999997226 -0.5 0  0.4099999999997503 -0.5 0  0.419999999999778 -0.5 0  0.4299999999998058 -0.5 0  0.4399999999998336 -0.5 0  0.4499999999998613 -0.5 0  0.4599999999998891 -0.5 0  0.4699999999999167 -0.5 0  0.4799999999999445 -0.5 0  0.4899999999999722 -0.5 0  0.5 -0.4902110204681464 0  0.5 -0.4804459958734807 0  0.5 -0.4707048677450883 0  0.5 -0.4609875815766065 0  0.5 -0.4512940759251849 0  0.5 -0.4416242912883993 0  0.5 -0.4319781678689807 0  0.5 -0.4223556545383647 0  0.5 -0.4127566896324213 0  0.5 -0.4031812128200121 0  0.5 -0.3936291733057916 0  0.5 -0.3841005081172659 0  0.5 -0.3745951585781932 0  0.5 -0.3651130778999337 0  0.5 -0.3556541993788045 0  0.5 -0.3462184677228392 0  0.5 -0.3368058273705318 0  0.5 -0.3274162224888609 0  0.5 -0.3180495969712945 0  0.5 -0.3087058944357755 0  0.5 -0.299385058222682 0  0.5 -0.2900870313927414 0  0.5 -0.2808117567250807 0  0.5 -0.2715591844628491 0  0.5 -0.2623292564012653 0  0.5 -0.253121909553727 0  0.5 -0.2439371050851549 0  0.5 -0.2347747685524501 0  0.5 -0.2256348634421331 0  0.5 -0.2165173209784076 0  0.5 -0.207422087829958 0  0.5 -0.1983491207029381 0  0.5 -0.1892983550950482 0  0.5 -0.1802697378305253 0  0.5 -0.1712632154965152 0  0.5 -0.1622787344187354 0  0.5 -0.1533162406595534 0  0.5 -0.1443756800160514 0  0.5 -0.1354569980180493 0  0.5 -0.1265601399261414 0  0.5 -0.1176850622761093 0  0.5 -0.1088317009011999 0  0.5 -0.09166666666668973 0  0.5 -0.08333333333337943 0  0.5 -0.07500000000006915 0  0.5 -0.06666666666675886 0  0.5 -0.05833333333344858 0  0.5 -0.05000000000013693 0  0.5 -0.04166666666678191 0  0.5 -0.03333333333342643 0  0.5 -0.02500000000006916 0  0.5 -0.01666666666671188 0  0.5 -0.00833333333335548 0  0.5 0.008333333333318314 0  0.5 0.01666666666663358 0  0.5 0.02499999999994162 0  0.5 0.03333333333325101 0  0.5 0.04166666666655769 0  0.5 0.04999999999986843 0  0.5 0.05833333333322258 0  0.5 0.06666666666657715 0  0.5 0.07499999999993352 0  0.5 0.08333333333328992 0  0.5 0.09166666666664541 0  0.5 0.1088317009011616 0  0.5 0.1176850622760307 0  0.5 0.1265601399260203 0  0.5 0.1354569980178909 0  0.5 0.1443756800158549 0  0.5 0.153316240659315 0  0.5 0.1622787344184454 0  0.5 0.1712632154961752 0  0.5 0.1802697378301332 0  0.5 0.1892983550946039 0  0.5 0.1983491207024433 0  0.5 0.2074220878294123 0  0.5 0.216517320977811 0  0.5 0.2256348634414833 0  0.5 0.2347747685517479 0  0.5 0.2439371050844009 0  0.5 0.2531219095529224 0  0.5 0.2623292564004089 0  0.5 0.2715591844619371 0  0.5 0.2808117567241139 0  0.5 0.290087031391723 0  0.5 0.2993850582216101 0  0.5 0.3087058944347426 0  0.5 0.3180495969703129 0  0.5 0.3274162224879299 0  0.5 0.3368058273696494 0  0.5 0.3462184677220051 0  0.5 0.3556541993780186 0  0.5 0.3651130778991989 0  0.5 0.3745951585775107 0  0.5 0.3841005081166359 0  0.5 0.3936291733052134 0  0.5 0.4031812128194852 0  0.5 0.412756689631945 0  0.5 0.4223556545379392 0  0.5 0.431978167868607 0  0.5 0.4416242912880781 0  0.5 0.4512940759249164 0  0.5 0.4609875815763912 0  0.5 0.4707048677449264 0  0.5 0.4804459958733726 0  0.5 0.4902110204680924 0  0.4900000000000277 0.5 0  0.4800000000000555 0.5 0  0.4700000000000832 0.5 0  0.4600000000001109 0.5 0  0.4500000000001387 0.5 0  0.4400000000001664 0.5 0  0.4300000000001942 0.5 0  0.4200000000002219 0.5 0  0.4100000000002497 0.5 0  0.4000000000002774 0.5 0  0.3900000000003052 0.5 0  0.3800000000003328 0.5 0  0.3700000000003606 0.5 0  0.3600000000003883 0.5 0  0.3500000000004161 0.5 0  0.3400000000004438 0.5 0  0.3300000000004716 0.5 0  0.3200000000004993 0.5 0  0.3100000000005271 0.5 0  0.3000000000005548 0.5 0  0.2900000000005825 0.5 0  0.2800000000006103 0.5 0  0.2700000000006381 0.5 0  0.2600000000006658 0.5 0  0.2500000000006935 0.5 0  0.2400000000007212 0.5 0  0.230000000000749 0.5 0  0.2200000000007767 0.5 0  0.2100000000008044 0.5 0  0.2000000000008322 0.5 0  0.19000000000086 0.5 0  0.1800000000008877 0.5 0  0.1700000000009154 0.5 0  0.1600000000009431 0.5 0  0.1500000000009709 0.5 0  0.1400000000009986 0.5 0  0.1300000000010264 0.5 0  0.1200000000010541 0.5 0  0.1100000000010818 0.5 0  0.1000000000011096 0.5 0  0.09000000000113734 0.5 0  0.08000000000116503 0.5 0  0.07000000000119283 0.5 0  0.06000000000122058 0.5 0  0.05000000000124827 0.5 0  0.04000000000127607 0.5 0  0.03000000000130376 0.5 0  0.02000000000133151 0.5 0  0.01000000000135925 0.5 0  1.376121439022882e-12 0.5 0  -0.009999999998640763 0.5 0  -0.01999999999866864 0.5 0  -0.02999999999869629 0.5 0  -0.03999999999872406 0.5 0  -0.04999999999875182 0.5 0  -0.05999999999877947 0.5 0  -0.06999999999880724 0.5 0  -0.079999999998835 0.5 0  -0.08999999999886266 0.5 0  -0.09999999999889042 0.5 0  -0.1099999999989182 0.5 0  -0.1199999999989459 0.5 0  -0.1299999999989737 0.5 0  -0.1399999999990014 0.5 0  -0.1499999999990291 0.5 0  -0.1599999999990568 0.5 0  -0.1699999999990847 0.5 0  -0.1799999999991124 0.5 0  -0.1899999999991401 0.5 0  -0.1999999999991678 0.5 0  -0.2099999999991955 0.5 0  -0.2199999999992234 0.5 0  -0.2299999999992511 0.5 0  -0.2399999999992788 0.5 0  -0.2499999999993066 0.5 0  -0.2599999999993342 0.5 0  -0.269999999999362 0.5 0  -0.2799999999993897 0.5 0  -0.2899999999994175 0.5 0  -0.2999999999994452 0.5 0  -0.3099999999994729 0.5 0  -0.3199999999995007 0.5 0  -0.3299999999995284 0.5 0  -0.3399999999995562 0.5 0  -0.3499999999995839 0.5 0  -0.3599999999996116 0.5 0  -0.3699999999996393 0.5 0  -0.379999999999667 0.5 0  -0.3899999999996949 0.5 0  -0.3999999999997226 0.5 0  -0.4099999999997503 0.5 0  -0.419999999999778 0.5 0  -0.4299999999998058 0.5 0  -0.4399999999998336 0.5 0  -0.4499999999998613 0.5 0  -0.4599999999998891 0.5 0  -0.4699999999999167 0.5 0  -0.4799999999999445 0.5 0  -0.4899999999999722 0.5 0  -0.5 0.4902110204681464 0  -0.5 0.4804459958734807 0  -0.5 0.4707048677450883 0  -0.5 0.4609875815766065 0  -0.5 0.4512940759251849 0  -0.5 0.4416242912883993 0  -0.5 0.4319781678689807 0  -0.5 0.4223556545383647 0  -0.5 0.4127566896324213 0  -0.5 0.4031812128200121 0  -0.5 0.3936291733057916 0  -0.5 0.3841005081172659 0  -0.5 0.3745951585781932 0  -0.5 0.3651130778999337 0  -0.5 0.3556541993788045 0  -0.5 0.3462184677228392 0  -0.5 0.3368058273705318 0  -0.5 0.3274162224888609 0  -0.5 0.3180495969712945 0  -0.5 0.3087058944357755 0  -0.5 0.299385058222682 0  -0.5 0.2900870313927414 0  -0.5 0.2808117567250807 0  -0.5 0.2715591844628491 0  -0.5 0.2623292564012653 0  -0.5 0.253121909553727 0  -0.5 0.2439371050851549 0  -0.5 0.2347747685524501 0  -0.5 0.2256348634421331 0  -0.5 0.2165173209784076 0  -0.5 0.207422087829958 0  -0.5 0.1983491207029381 0  -0.5 0.1892983550950482 0  -0.5 0.1802697378305253 0  -0.5 0.1712632154965152 0  -0.5 0.1622787344187354 0  -0.5 0.1533162406595534 0  -0.5 0.1443756800160514 0  -0.5 0.1354569980180493 0  -0.5 0.1265601399261414 0  -0.5 0.1176850622761093 0  -0.5 0.1088317009011999 0  -0.5 0.09167500000001694 0  -0.5 0.08335000000003931 0  -0.5 0.07502500000006167 0  -0.5 0.06670000000008947 0  -0.5 0.05837500000011001 0  -0.5 0.0500500000001328 0  -0.5 0.0417250000001127 0  -0.5 0.03340000000008944 0  -0.5 0.02507500000006573 0  -0.5 0.01675000000004653 0  -0.5 0.008425000000027341 
[...]
<PointData  Scalars="f_31"> 
<DataArray  type="Float64"  Name="f_31"  format="ascii">1.0000000000000000e+00  1.3394339589042364e-09  2.1192816594596418e-06  9.9532160399784864e-01  9.2828029136280819e-07  1.3110271550272951e-08  1.0000000000000000e+00  1.0000000000000000e+00  2.0834814536455867e-03  1.1728755770561809e-03  1.1821038804102335e-03  1.1815696270567743e-03  1.4863332918172337e-09  1.8485386573386696e-09  2.3268107546983673e-09  2.8511351666965288e-09  3.3525977441341284e-09  3.8382969124412221e-09  4.3064368562618839e-09  4.7927594184068181e-09  5.2617969193727966e-09  5.7463482739576825e-09  6.2507679693594472e-09  6.8184724741151739e-09  7.4201619392767804e-09  8.0760248009916608e-09  8.8057538607335747e-09  9.6276129423966387e-09  1.0588240175272326e-08  1.1626398851911422e-08  1.2791633932711766e-08  1.4107835455710593e-08  1.5512583664561898e-08  1.7060817217515640e-08  1.8806670476305603e-08  2.0636690364395511e-08  2.2658031465418280e-08  2.4847990097360497e-08  2.7211255905078616e-08  2.9817240692728213e-08  3.2531518063812281e-08  3.5525744959699401e-08  3.8678382314357478e-08  4.2052302641739711e-08  4.5636106039684857e-08  4.9480303586966255e-08  5.3544025347963204e-08  5.7811408261942323e-08  6.2322058918647921e-08  6.7091009156286878e-08  7.2088571742042059e-08  7.7278715411137152e-08  8.2743282522513852e-08  8.8462612925748538e-08  9.4333900664571632e-08  1.0050022808359458e-07  1.0683342691208215e-07  1.1347650985194323e-07  1.2022926712789885e-07  1.2719415806656693e-07  1.3441884893393854e-07  1.4177921952346262e-07  1.4933088313481432e-07  1.5705969608096241e-07  1.6503934516903327e-07  1.7318358921846752e-07  1.8133953956892477e-07  1.8968446572679213e-07  1.9821117728143785e-07  2.0692278160628980e-07  2.1574908163780468e-07  2.2465502851196751e-07  2.3387713744721507e-07  2.4327970740589728e-07  2.5262883247139539e-07  2.6222867397112326e-07  2.7205885946115127e-07  2.8191170712891525e-07  2.9214156918729836e-07  3.0243616567872254e-07  3.1296508058533838e-07  3.2382595663887407e-07  3.3498003710093867e-07  3.4646037365067850e-07  3.5824564871285897e-07  3.7023524295235738e-07  3.8271064244448998e-07  3.9574323930620645e-07  4.0917373719938352e-07  4.2328548465645033e-07  4.3826027868869725e-07  4.5381827985233635e-07  4.7053764671271979e-07  4.8802484482821711e-07  5.0662122778299204e-07  5.2672279038713763e-07  5.4870921289416408e-07  5.7243415111128628e-07  5.9856623670918818e-07  6.2815050075298612e-07  6.6092136212869383e-07  6.9875073103897970e-07  7.4230311453306837e-07  7.9528044043315901e-07  8.5775264144309661e-07  9.3650714279602708e-07  1.0374517692428506e-06  1.1702336790322863e-06  1.3443794179278471e-06  1.5727808926508111e-06  1.8678370549335136e-06  1.9636092185413302e-06  1.6873237080311140e-06  1.4716668120280295e-06  1.3032272214876583e-06  1.1826425290027850e-06  1.0938767373554949e-06  1.0285630527444215e-06  9.7840667036167044e-07  9.3923362365801049e-07  9.0871672975256547e-07  8.8393842764160699e-07  8.6433762899801154e-07  8.4827711780519184e-07  8.3564016238500092e-07  8.2509143680846087e-07  8.1644741349898464e-07  8.0965020040764989e-07  8.0413865559121808e-07  7.9970344481736259e-07  7.9657573822573047e-07  7.9450328189074886e-07  7.9396835964068348e-07  7.9538508632891702e-07  7.9985097171980318e-07  8.0944618125526741e-07  8.2787259195148401e-07  8.6255483290857048e-07  9.2340353659297297e-07  1.0386739841987878e-06  1.2507145364379424e-06  1.6349722476947574e-06  2.3612252202033010e-06  3.6664156950670872e-06  6.0706660141622440e-06  1.0350218498810007e-05  1.8488172854638711e-05  3.3321407128096069e-05  6.0573743848689781e-05  1.0957427303950810e-04  1.9699120790229175e-04  3.5927415971441983e-04  6.5187264634793390e-04  2.0753671406787432e-03  3.6556701904475897e-03  6.4469055007876294e-03  1.1193981184741271e-02  1.9605338508613547e-02  3.4415847595299455e-02  6.0205202221325596e-02  1.0531987551912703e-01  1.8369193582221935e-01  3.2608401967922107e-01  5.7252825958877329e-01  9.8668471263785551e-01  5.7477841280820308e-01  3.3130148236566215e-01  1.8547979928419972e-01  1.0570455748911856e-01  6.0448604929020835e-02  3.4471044423823892e-02  1.9684374667731840e-02  1.1183141457800907e-02  6.4724417309942163e-03  3.6854255921296695e-03  1.1574085152806042e-03  6.3766188757458835e-04  3.4946918827524043e-04  1.9416782553548275e-04  1.0709461675641473e-04  5.8660740198347918e-05  3.2302478551088042e-05  1.7835811463402008e-05  1.0239854148887053e-05  5.9786912652033828e-06  3.6635995460302982e-06  2.3807715603923981e-06  1.7032479256683854e-06  1.3306549979754018e-06  1.1294455985281720e-06  1.0238288012441657e-06  9.6432724154156772e-07  9.3299375826728878e-07  9.1663191849714851e-07  9.0851526814150858e-07  9.0483189853783054e-07  9.0399038661285545e-07  9.0386707766080803e-07  9.0519876199540632e-07  9.0642689582419340e-07  9.0807537592390581e-07  9.1029704946335178e-07  9.1172047850925246e-07  9.1347367066502135e-07  9.1538197474510883e-07  9.1719108019962578e-07  9.1879226527141286e-07  9.2022371687714502e-07  9.2172424187332533e-07  9.2308192825497352e-07  9.2430470311119520e-07  9.2526114584085494e-07  9.2625836108041283e-07  9.2694844886891028e-07  9.2799055719167042e-07  9.2776989475681143e-07  9.2820055415399362e-07  9.2203007720856785e-07  9.0888165602669376e-07  8.9227158376979260e-07  8.7407676520332086e-07  8.5513882876674990e-07  8.3621274615202452e-07  8.1766313182003664e-07  7.9960184915223434e-07  7.8168618518063521e-07  7.6428046216304928e-07  7.4734746341764107e-07  7.3092620282829714e-07  7.1465321310778613e-07  6.9897442036596975e-07  6.8361268854261362e-07  6.6848042251497333e-07  6.5372231604204146e-07  6.3924687250886356e-07  6.2508936746845732e-07  6.1095802680269474e-07  5.9719949476565748e-07  5.8348648840379258e-07  5.7003297748292909e-07  5.5646451928220790e-07  5.4313169716357978e-07  5.2994842728175123e-07  5.1660476691333052e-07  5.0336017551153090e-07  4.8980705980333784e-07  4.7646064786868881e-07  4.6298879015474487e-07  4.4946424417582884e-07  4.3573865262436661e-07  4.2192827714645736e-07  4.0804666233456697e-07  3.9408747021888150e-07  3.8003616937021754e-07  3.6589815184535416e-07  3.5162101704766144e-07  3.3706705351726745e-07  3.2267296219076698e-07  3.0824497601388563e-07  2.9386568282801275e-07  2.7959523411069478e-07  2.6523107275524970e-07  2.5117943208495334e-07  2.3702223944500547e-07  2.2309119919117862e-07  2.0948403490361519e-07  1.9620631831622090e-07  1.8327304239733370e-07  1.7047023072016062e-07  1.5831951885663150e-07  1.4643922340304556e-07  1.3496139405509051e-07  1.2410824470503020e-07  1.1359547306241972e-07  1.0363202042466562e-07  9.4229800697421882e-08  8.5296100314870645e-08  7.6995326006705907e-08  6.9133330945508515e-08  6.1856353697498232e-08  5.5074097623569432e-08  4.8816221758726804e-08  4.3032682011044440e-08  3.7677320812224886e-08  3.2874507586945538e-08  2.8430806556941662e-08  2.4439868797026276e-08  2.0825662362865750e-08  1.7605885918674639e-08  1.4705317922248125e-08  1.2167012878686015e-08  9.8994149304980546e-09  7.9300639951854526e-09  6.2517011487273547e-09  4.7951017927455039e-09  3.5869858396854231e-09  2.5846332472297107e-09  1.7912998127837808e-09  1.1965981749520039e-09  7.8383440568946833e-10  5.5242633683142289e-10  4.8424057175303749e-10  5.6939992594405606e-10  7.9851372735444979e-10  1.1571231996862651e-09  1.6377839179430105e-09  2.2267242228464684e-09  2.9401380158403515e-09  3.7739099699185346e-09  4.7483951843350967e-09  5.8403950436647179e-09  7.0899789829685440e-09  8.4448165831637891e-09  9.9125200556101631e-09  1.1340451006691336e-08  1.2518361267940838e-08  1.3111865701435134e-08  1.3069091769314629e-08  1.3044200279986481e-08  1.2897105717027884e-08  1.2783635849906753e-08  1.2637379844541402e-08  1.2452052142255638e-08  1.2262481915505329e-08  1.2019520242972826e-08  1.1780750670357723e-08  1.1515862773736112e-08  1.1229108719619362e-08  1.0913497645814609e-08  1.0580957099060369e-08  1.0241305304331464e-08  9.8988860946454431e-09  9.5703475534739019e-09  9.2752423858407258e-09  9.0663899956582449e-09  9.0561295619685351e-09  9.4065674303779091e-09  1.0426964919652476e-08  1.2741895945802479e-08  1.7487944819251530e-08  2.6666529212360125e-08  4.4107978493680004e-08  7.6677019938669241e-08  1.3802113815447505e-07  2.5222725745026131e-07  4.6317973284112524e-07  8.5256239697411263e-07  1.5600190813127502e-06  2.8724317736551814e-06  5.2961331204380201e-06  9.6252333680217557e-06  1.7806971287158028e-05  3.2580279209526352e-05  5.9489505811368416e-05  1.0813361400357809e-04  1.9581904443247638e-04  3.5979681764083824e-04  6.5481773006224582e-04  2.0961164450666123e-03  3.6840474326734563e-03  6.4858480546501158e-03  1.1256664936983072e-02  1.9737252546333107e-02  3.4720941310058699e-02  6.0782049335313684e-02  1.0622165161858454e-01  1.8493003603190603e-01  3.2702515526097886e-01  5.7160142369608524e-01  1.0000000000000000e+00  1.0000000000000000e+00  1.0000000000000000e+00  1.0000000000000000e+00  1.0000000000000000e+00  1.0000000000000000e+00  1.0000000000000000e+00  1.0000000000000000e+00  1.0000000000000000e+00  1.0000000000000000e+00  1.0000000000000000e+00  1.0000000000000000e+00  1.0000000000000000e+00  1.0000000000000000e+00  1.0000000000000000e+00  9.9999999999999989e-01  1.0000000000000000e+00  1.0000000000000000e+00  1.0000000000000000e+00  1.0000000000000000e+00  1.0000000000000000e+00  1.0000000000000000e+00  1.0000000000000000e+00  1.0000000000000000e+00  1.0000000000000000e+00  1.0000000000000000e+00  9.9999999999999989e-01  1.0000000000000000e+00  1.0000000000000000e+00  1.0000000000000000e+00  1.0000000000000000e+00  1.0000000000000000e+00  1.0000000000000000e+00  1.0000000000000000e+00  1.0000000000000000e+00  1.0000000000000000e+00  1.0000000000000000e+00  1.0000000000000000e+00  1.0000000000000000e+00  1.0000000000000000e+00  1.0000000000000000e+00  1.0000000000000000e+00  1.0000000000000000e+00  1.0000000000000000e+00  1.0000000000000000e+00  1.0000000000000000e+00  1.0000000000000000e+00  1.0000000000000000e+00  1.0000000000000000e+00  1.0000000000000000e+00  1.0000000000000000e+00  9.9999999999999989e-01  9.9999999999999989e-01  1.0000000000000000e+00  1.0000000000000000e+00  9.9999999999999989e-01  1.0000000000000000e+00  1.0000000000000000e+00  1.0000000000000000e+00  1.0000000000000000e+00  1.0000000000000000e+00  1.0000000000000000e+00  1.0000000000000000e+00  1.0000000000000000e+00  1.0000000000000000e+00  1.0000000000000000e+00  1.0000000000000000e+00  1.0000000000000000e+00  1.0000000000000000e+00  1.0000000000000000e+00  1.0000000000000000e+00  1.0000000000000000e+00  1.0000000000000000e+00  1.0000000000000000e+00  1.0000000000000000e+00  1.0000000000000000e+00  1.0000000000000000e+00  1.0000000000000000e+00  1.0000000000000000e+00  1.0000000000000000e+00  1.0000000000000000e+00  1.0000000000000000e+00  1.0000000000000000e+00  1.0000000000000000e+00  1.0000000000000000e+00  1.0000000000000000e+00  1.0000000000000000e+00  1.0000000000000000e+00  1.0000000000000000e+00  1.0000000000000000e+00  1.0000000000000000e+00  1.0000000000000000e+00  1.0000000000000000e+00  1.0000000000000000e+00  1.0000000000000000e+00  1.0000000000000000e+00  1.0000000000000000e+00  1.0000000000000000e+00  1.0000000000000000e+00  1.0000000000000000e+00  1.0000000000000000e+00  1.0000000000000000e+00  1.0000000000000000e+00  1.0000000000000000e+00  1.0000000000000000e+00  1.0000000000000000e+00  1.0000000000000000e+00  9.9999999999999989e-01  1.0000000000000000e+00  1.0000000000000000e+00  5.7157081540414423e-01  3.2704024577897906e-01  1.8489315724888003e-01  1.0623927487747957e-01  6.0789268493260662e-02  3.4726290619982725e-02  1.9744685352802105e-02  1.1258434688715522e-02  6.4895802531682277e-03  3.6859954009255212e-03  2.0973559627137412e-03  6.5513204780642982e-04  3.5991679458528684e-04  1.9537136154671632e-04  1.0819459048620255e-04  5.9556752268257727e-05  3.2618430451173910e-05  1.7822401252986983e-05  9.6352285757221605e-06  5.2991820178915804e-06  2.8734749693660290e-06  1.5607854351331988e-06  8.5317557493543773e-07  4.6366504078628748e-07  2.5239653344764302e-07  1.3798342654199209e-07  7.6468437281670037e-08  4.3728073271516252e-08  2.6110972478499869e-08  1.6717317039353804e-08  1.1731691232685684e-08  9.1476055203286735e-09  7.8211184657136290e-09  7.1289562092242870e-09  6.7548411208288385e-09  6.5381241259538160e-09  6.3754941002036059e-09  6.2168898344259667e-09  6.0260288665448958e-09  5.7962563833420483e-09  5.5356160185585687e-09  5.2241071839679440e-09  4.8716301531622396e-09  4.4828734060900102e-09  4.0582105724280146e-09  3.6227268517905216e-09  3.1977882120365092e-09  2.7636841841454778e-09  2.3373331987926534e-09  1.9589340277993823e-09  1.6289010125898398e-09  1.4660151807553887e-09  1.3591267804883072e-09  1.1789203912385610e-03  1.1823895077591449e-03  1.1825376985944514e-03  1.1783920578138430e-03  1.1725498452428789e-03  1.1865518105751167e-03  1.1823442982757889e-03  1.1649283519126140e-03  1.1761298417613524e-03  1.1877954286354997e-03  1.1644079475061481e-03  1.1772136834709015e-03  1.1866788563762432e-03  1.1848093465260190e-03  1.1827266634870201e-03  1.1728074789044383e-03  1.1708278400164032e-03  1.1599244733274654e-03  1.1781964785346993e-03  1.1818597193923529e-03  1.1710656320134483e-03  1.1707867088797204e-03  1.1852145743129804e-03  1.1857308470580210e-03  1.1735547900464276e-03  1.1765834327700832e-03  1.1783762401702028e-03  1.1720834286714371e-03  1.1845669821641622e-03  1.1781984450891076e-03  1.1702458281287647e-03  1.1757992886133645e-03  1.1763647831050268e-03  1.1653849691901290e-03  1.1765430197350350e-03  1.1925431860713165e-03  1.1657450123676656e-03  1.1823808100874637e-03  1.1817499182533232e-03  1.1674923132311752e-03  1.1922213529061434e-03  1.1867623705579325e-03  1.1722790693449014e-03  1.1877755006758615e-03  1.1776783811416492e-03  1.1861267328106455e-03  1.2156682415190956e-03  1.2379923146373876e-03  1.2544599260925033e-03  1.3076877123517413e-03  1.3640454286282927e-03  1.4202243502338902e-03  1.5305172795470174e-03  1.6192198122597038e-03  1.7111121025254574e-03  1.8260586606449580e-03  1.9032982941256664e-03  1.9501779330961372e-03  2.0447327738342480e-03  2.0718547795470256e-03  2.0807437095848652e-03  2.1056692524359954e-03  2.0678814380955027e-03  2.0836966789997522e-03  2.0829635955365196e-03  2.0773270068545459e-03  2.0549328530714791e-03  2.0174720094801157e-03  2.0455176012919097e-03  2.0499904635973617e-03  2.0373696979183336e-03  2.0215043998232799e-03  2.0239230992716403e-03  2.0178149041439070e-03  1.9845627053269202e-03  2.0011097700741243e-03  1.9902076391069760e-03  1.9704775773436221e-03  1.9896117293849254e-03  1.9774578658940754e-03  1.9633599870033627e-03  1.9869630861057653e-03  1.9968883233323592e-03  1.9767486369714551e-03  1.9697745962629232e-03  2.0192557607020415e-03  2.0127261368870527e-03  2.0146918775940299e-03  2.0148218496086130e-03  1.9885367654573064e-03  2.0109011257516993e-03  2.0277803020888698e-03  2.0282947869615679e-03  2.0291905482853335e-03  1.9982601026246097e-03  2.0271562839440029e-03  2.0432801281544742e-03  2.0526840737260066e-03  2.0421947008373549e-03  2.0473689091667726e-03  2.0596134402643337e-03  2.0713428263356695e-03  2.0727684865388977e-03  2.0863072553552768e-03  2.0966713996807738e-03  2.0860956937147840e-03  2.0916033930861964e-03  2.0869930714303578e-03  2.0681838927116229e-03  2.0975798376783148e-03  2.1116218977222357e-03  1.1794952593949968e-03  1.1825743181823963e-03  1.1827079921066280e-03  1.1785087401715347e-03  1.1727011365772031e-03  1.1871301769644368e-03  1.1825187999121372e-03  1.1653065891198725e-03  1.1759459340934799e-03  1.1871410739557485e-03  1.1659236018076136e-03  1.1762295224306194e-03  1.1856511727978201e-03  1.1836504513382255e-03  1.1814973416102998e-03  1.1721841989328673e-03  1.1690802888619971e-03  1.1560841533394006e-03  1.1758503091685245e-03  1.1836938849554483e-03  1.1735506197289819e-03  1.1746533192422029e-03  1.1869482694117253e-03  1.1876837969315357e-03  1.1745459640856866e-03  1.1772732998607380e-03  1.1795148450958492e-03  1.1732242026761257e-03  1.1848447195473536e-03  1.1787039362684904e-03  1.1700860226731928e-03  1.1742560271006067e-03  1.1733515998752963e-03  1.1623188680612709e-03  1.1733661931184651e-03  1.1899290631141827e-03  1.1625884266090040e-03  1.1791145051290358e-03  1.1773922424940170e-03  1.1627029754170052e-03  1.1881351957647435e-03  1.1816190377709887e-03  1.1669613284234443e-03  1.1812337849730107e-03  1.1665791359405395e-03  1.1664953292097281e-03  1.1814966196503284e-03  1.1826822569338102e-03  1.1675748745777553e-03  1.1769867247104963e-03  1.1772390419717558e-03  1.1600188528976250e-03  1.1784397952516626e-03  1.1755224375155212e-03  1.1680889896810323e-03  1.1772985583724006e-03  1.1733827949782149e-03  1.1578979564753737e-03  1.1797669856774009e-03  1.1753507277750426e-03  1.1678807939514619e-03  1.1775981583648436e-03  1.1562822526018242e-03  1.1669364254336067e-03  1.1696845546015295e-03  1.1698424657093389e-03  1.1609261717653162e-03  1.1441608885242687e-03  1.1649760096920964e-03  1.1736089491408493e-03  1.1721943117736437e-03  1.1667191727745682e-03  1.1744911628419313e-03  1.1766265175339968e-03  1.1629605696517795e-03  1.1781440855290468e-03  1.1766930466951637e-03  1.1686704548184363e-03  1.1818942432103624e-03  1.1742895066021899e-03  1.1632851626888416e-03  1.1733664540996183e-03  1.1744101314025829e-03  1.1600536864761141e-03  1.1494701666318291e-03  1.1739970379164228e-03  1.1675492871288105e-03  1.1680161410397238e-03  1.1692241618220590e-03  1.1554783721634081e-03  1.1691043810989851e-03  1.1788544404515865e-03  1.1768154486282167e-03  1.1729304540229126e-03  1.1512357542778873e-03  1.1653268731042390e-03  1.1727228400192349e-03  1.1769097690203618e-03  1.1683527506554760e-03  1.1680622535285567e-03  1.1704454871170923e-03  1.1726194128346252e-03  1.1702026154728966e-03  1.1752966177376695e-03  1.1798035660123304e-03  1.1738203262947641e-03  1.1758360089092047e-03  1.1737501325195957e-03  1.1624739860799441e-03  1.1799176263285504e-03  1.1895415773194682e-03  9.9290377879230474e-01  9.9796111338891624e-01  9.9406884705173226e-01  9.9545831132779850e-01  9.9612274012167845e-01  9.9556765030857408e-01  9.9599195381372885e-01  9.9634842443581439e-01  9.9531436495171177e-01  9.9577590134079075e-01  9.9449040107795450e-01  9.9740840528662189e-01  9.9491457508947689e-01  9.9652463934176494e-01  9.9599989203709116e-01  9.9647313643106727e-01  9.9628726910281962e-01  9.9621490946105418e-01  9.9647634224747528e-01  9.9643912995448125e-01  9.9652778442518830e-01  9.9663439906067008e-01  9.9666426146988651e-01  9.9693979220949902e-01  9.9695496129603978e-01  9.9528739220624407e-01  9.9841850139606558e-01  9.9572533320739531e-01  9.9706086314952957e-01  9.9598294939067522e-01  9.9533878756483818e-01  9.9540541322619380e-01  9.9605534770481574e-01  9.9705784609248116e-01  9.9570026888733476e-01  9.9858023806988039e-01  9.9536758532858605e-01  9.9538685628279600e-01  9.9819417255313425e-01  9.9487879185966288e-01  9.9574289724219933e-01  9.9550323708159782e-01  9.9659173069647489e-01  9.9624175058631981e-01  9.9584965291720862e-01  9.9595219290764758e-01  9.9513441547605785e-01  9.9578294216471452e-01  9.9623169969315684e-01  9.9566174991865730e-01  9.9624838066024834e-01  9.9563075395920064e-01  9.9628138892295470e-01  9.9461852612039781e-01  9.9683232800674715e-01  9.9923813718994797e-08  4.7716238870658852e-09  4.1364386240313159e-07  6.1360965196981684e-07  7.6036606016142465e-07  3.0846817816851283e-07  3.5018699541983611e-07  1.1082613382672958e-06  5.0315120036294643e-07  2.2770568119053079e-07  2.5945542438609002e-08  1.6987368320453569e-09  1.8519692902584482e-06  7.2932887868440028e-07  1.6572595819054499e-06  1.5091405486613301e-06  3.2752374547302975e-06  3.6895750047332797e-07  3.7231995072196526e-09  9.6192165890007252e-08  4.8621420657282942e