<?xml version="1.0"?>
<VTKFile type="UnstructuredGrid"  version="0.1"  >
<UnstructuredGrid>
<Piece  NumberOfPoints="7876" NumberOfCells="15418">
<Points>
<DataArray  type="Float64"  NumberOfComponents="3"  format="ascii">0.4249163915692647 0.01631841845330215 0  0.4191401984187901 0.02506912326907745 0  0.4289726413756784 0.02612113468352234 0  0.2767857142851263 0 0  0.2857142857137213 0 0  0.2812248065388995 0.01038713515471629 0  0.2967416581061778 0.01586295423198182 0  0.3064949907319527 0.01146398069210909 0  0.3067328811979874 0.02020700170352196 0  0.4107142857140506 0 0  0.4158019546614985 0.01016411496813172 0  0.4057527942907854 0.009131608077795703 0  0.4196428571426455 0 0  0.4553405836246289 0.01922319952462705 0  0.4502185492061667 0.009048838576603154 0  0.4477073454460922 0.01802506369374225 0  0.4605954067271555 0.009479653905184819 0  0.408405027027524 0.01879365359558598 0  0.3327471483778357 0.0116169966389358 0  0.3411241715572504 0.008869738053334202 0  0.3373462348395153 0.02016803949949268 0  0.3449193622080142 0.01675939042031124 0  0.4560666881261162 0.03472713690621396 0  0.4569587136330783 0.04407065178190893 0  0.4645781729481331 0.03500647048889689 0  0.2904696492978588 0.008492270780567407 0  0.2720303507010008 0.008492270780552839 0  0.4838057761916891 0.01622211176217807 0  0.4891090527860916 0.02607095670293257 0  0.4795070208502278 0.02491741008730116 0  0.4211559635346557 0.03243305996231127 0  0.4173837681617427 0.01810252336731936 0  0.3660714285710758 0 0  0.3749999999996708 0 0  0.3705680309420432 0.008201070915841512 0  0.3965571177416637 0.01294782644931313 0  0.3992606773450048 0.02237662197021784 0  0.3902814058312629 0.01811759008946148 0  0.4285714285712405 0 0  0.4374999999998354 0 0  0.4334237600940167 0.009048611384771411 0  0.4927506564360022 0.01903999749114713 0  0.3839285714282657 0 0  0.3890635451104001 0.008240259980012892 0  0.3784196719804126 0.007481561376362831 0  0.5 0.01666666666663358 0  0.5 0.02499999999994162 0  0.4061453336374634 0.02935988719507548 0  0.348214285713886 0 0  0.3502294097567256 0.009878282563881815 0  0.3151800619601543 0.01577240943901992 0  0.3147970056337792 0.007167663975001442 0  0.4420347072790085 0.01336505252911134 0  0.4023625044156623 0.01617529801156756 0  0.4553571428570253 0 0  0.4642857142856202 0 0  0.4243709028119588 0.00727809114851148 0  0.339285714285291 0 0  0.4347701887808393 0.01827839080428576 0  0.4690441985935219 0.01369774138246527 0  0.4640479097518392 0.01898294713710774 0  0.4017857142854556 0 0  0.4764853757018662 0.01540483407615287 0  0.2995052226020027 0.006894767932474348 0  0.4900341868388961 0.009951128878779391 0  0.4840982638409085 0.006610041318770014 0  0.4729205872125939 0.02105941703877819 0  0.4732142857142151 0 0  0.4821428571428101 0 0  0.4775649102044346 0.008808120446456702 0  0.4125742734033346 0.02453769300732587 0  0.3833804528072166 0.01410165736595959 0  0.4385651146460528 0.0262691371443281 0  0.4479564019985485 0.02597444175282206 0  0.4418851568713737 0.02028872896899281 0  0.3214285714281011 0 0  0.3234529884967683 0.00981963478795464 0  0.441964285714133 0.00593177226273425 0  0.4545479790973798 0.02817736542779369 0  0.2946428571423163 0 0  0.2678571428565314 0 0  0.4687499999999168 0.006124543461934053 0  0.471051587301668 0.02916666666659636 0  0.4617881241986502 0.02696257176711717 0  0.3630195836433963 0.007314498443048009 0  0.3564355390309227 0.006586318444912457 0  0.4910714285714051 0 0  0.4434801203186426 0.03303318745330348 0  0.4464285714284303 0 0  0.3584266541327418 0.0137736503568923 0  0.353189797837348 0.02212837720969356 0  0.3622128364641971 0.02008188204889313 0  0.4950377542550979 0.00588984251567878 0  0.3571428571424809 0 0  0.3928571428568606 0 0  0.3756592117346809 0.01579685420922956 0  0.3661560270816275 0.01439607657884632 0  0.3124999999995061 0 0  0.4487581541241857 0.0401831692739316 0  0.3973214285711587 0.005726850543111202 0  0.4673699675652473 0.02404886747925368 0  0.3285511308344141 0.005598970213513247 0  0.3463168014750809 0.02366118255935359 0  0.3839988775683789 0.02112425438657994 0  0.3080357142852087 0.00468823177294991 0  0.2589285714279365 0 0  0.2631212781840686 0.007015406202879499 0  0.2544642857136414 0.004688231772951413 0  0.3035714285709112 0 0  0.3520041036871805 0.01556653824567161 0  0.330357142856696 0 0  0.449766933244412 0.03317884135793415 0  0.5 0 0  0.5 0.008333333333318314 0  0.3348214285709941 0.005424041358853929 0  0.4956127664449431 0.01249999999997595 0  0.2499999999993469 0 0  0.4135799531945678 0.03123450343901587 0  -0.3483934010538861 -0.08484572601162338 0  -0.3405461382146081 -0.08898624933820695 0  -0.3417924481853969 -0.07763657082743236 0  -0.3332476784868302 -0.0824270883713619 0  0.2567996470856309 -0.04922294709707099 0  0.2615747937984864 -0.03911046160981974 0  0.2521376976682361 -0.03841363604630693 0  0.054637677942483 -0.03729742734360458 0  0.05436260035962338 -0.02692271934564467 0  0.04463661516738563 -0.03088038922788267 0  0.3497788201090177 -0.05634354453637726 0  0.3595641271282136 -0.06032201280660569 0  0.352758530291081 -0.04973044372830221 0  0.2098214285708826 -0.0680245535714446 0  0.2080523097187477 -0.05736430134349749 0  0.2161944847954839 -0.05987720177343991 0  0.1562499999996104 -0.06802455357141236 0  0.1543621473378817 -0.05739769449168096 0  0.1626230562241844 -0.05987720177335167 0  0.1026785714283378 -0.06802455357138024 0  0.1009600666742392 -0.05725623391842437 0  0.1090516276528846 -0.05987720177326381 0  0.4250739134779294 -0.01636611546687173 0  0.4191401984187901 -0.02506912326907798 0  0.4289270730935473 -0.02616651097703634 0  0.3574929684756453 -0.08467052881401364 0  0.3495971130782787 -0.08894027855982083 0  0.3507649617023171 -0.0776545533923816 0  0.3421807533182299 -0.08242007174338836 0  -0.364195375281696 -0.07752661409515869 0  -0.3552158943569041 -0.07149093121919207 0  -0.3655234992416128 -0.06847466993218951 0  -0.3591668701667492 -0.06189478595243662 0  0.3606373524606276 -0.04978041428638336 0  -0.473214285714215 -9.4642857142843e-05 0  -0.4730227666837037 -0.01241000086364194 0  -0.480692751114715 -0.008686261694240785 0  -0.4642857142858134 -0.1 0  -0.4553571428572668 -0.1 0  -0.4593080882769673 -0.08996412173209711 0  -0.3797967819136183 -0.03738578705998116 0  -0.3681385240082739 -0.03862549181661451 0  -0.374695033849047 -0.02970785394378747 0  -0.05591153824889453 -0.0431906731188556 0  -0.05422620724093098 -0.03277576327902337 0  -0.06160704916669536 -0.0388666810947436 0  -0.3579290388552167 -0.03299711024421233 0  -0.3511587618288846 -0.03824584623932025 0  -0.3606178853656651 -0.0434495760022929 0  0.4464285714284227 -0.1 0  0.4517272929894228 -0.09131108300269909 0  0.441795309698206 -0.09351775874475561 0  -0.4487665655930046 -0.09062285871250526 0  0.4153231600403321 -0.03852724033262692 0  0.4093518174702223 -0.04653635014989516 0  0.4197302084077636 -0.0464972320878496 0  0.4155289380633008 -0.05459564888258193 0  -0.4091577341291897 -0.04099683595035052 0  -0.4126521431981424 -0.03063377637212985 0  -0.4026438309666618 -0.03566243898822315 0  -0.4684529737123475 -0.0933353029288663 0  0.0401785714284937 -0.03755580357136472 0  0.03402273666112312 -0.04588586420804546 0  0.03367296756169912 -0.03439832178484198 0  0.02946687579216508 -0.01596454978282951 0  0.03653571784904612 -0.02621357404028583 0  0.02606393101750729 -0.02680570898637964 0  0.02800076339752448 -0.04174385571828064 0  0.3521193950230455 -0.03165426445696349 0  0.3628415969967344 -0.02852520913904793 0  0.3531897978373481 -0.02212837720969365 0  0.5 -0.05000000000013693 0  0.4907947530291201 -0.0549261069648472 0  0.4947973826236248 -0.04603862612194198 0  -0.3006722516187019 -0.01763568561538729 0  -0.2987376612926834 -0.02625002330196932 0  -0.3077826827580848 -0.02574396878768244 0  -0.2471007355957109 -0.01762580385668408 0  -0.2451656855339359 -0.02624012756662907 0  -0.2542111585689936 -0.02573446572526089 0  -0.5 -0.05004999999986921 0  -0.4908161726402718 -0.05498570446636991 0  -0.4948001849464224 -0.04609864193470255 0  -0.4062466983123816 -0.0801823047824705 0  -0.4062015502484813 -0.06902352409926871 0  -0.4142619626950597 -0.07529486785913148 0  0.1993236104610122 -0.01757992825654926 0  0.2087527001113953 -0.01194673649748713 0  0.2086600875385965 -0.02179686059487411 0  0.2169125529780965 -0.01634093584027977 0  0.2812248065388995 -0.01038713515471634 0  -0.4537190309657517 -0.08069916752350936 0  0.1999433502546125 -0.07176318975065654 0  0.2075215913721811 -0.07749416617642088 0  0.1991921019977064 -0.08220157690947469 0  0.1463831089483894 -0.07174801047192089 0  0.1539514058302373 -0.07749247958987113 0  0.1456206734262603 -0.08220157690941128 0  -0.02220274940448204 -0.06751853199984598 0  -0.02522095404736771 -0.05634662002562152 0  -0.01611062711846687 -0.06028200653926674 0  0.2154315471628965 -0.05034722629242176 0  0.1625097416023082 -0.05030053833398988 0  0.1088055397687599 -0.05019100084701821 0  -0.4115423321035901 -0.08894416401770638 0  -0.401870214704991 -0.08982956529416655 0  -0.03294867798709752 -0.08220150445113555 0  -0.03221079889245967 -0.07171388574531948 0  -0.02415540196000217 -0.07745590803929434 0  -0.07651285144902761 -0.06761971677900167 0  -0.07261883747956149 -0.05716845246006973 0  -0.08209526422726057 -0.06029072500126204 0  -0.1301205554983779 -0.06754392764342201 0  -0.1262620718338697 -0.05711499167084012 0  -0.135668196533485 -0.0602966183959122 0  -0.1836929038960597 -0.06754630470732817 0  -0.1798364674641391 -0.05711851802389931 0  -0.1892411276447344 -0.0603025105862229 0  0.2011705100050896 -0.0272703567581236 0  0.1918651567922782 -0.02564729523777646 0  -0.3446955213474959 -0.06807979676882227 0  -0.3469144232955963 -0.05717567977018093 0  -0.3379050527161465 -0.05957052617368713 0  0.4301549400407204 -0.04942233138157544 0  0.4323008626877973 -0.04083405609921663 0  0.4239200288990855 -0.0400865251194
[...]
<PointData  Scalars="f_26"> 
<DataArray  type="Float64"  Name="f_26"  format="ascii">2.3458115866670709e-02  2.3813329039701160e-02  2.3375297901658973e-02  2.7167473128968840e-02  2.7033794497129664e-02  2.7118424285303068e-02  2.6917903360411610e-02  2.6733200414282229e-02  2.6803382187513582e-02  2.3982454249742800e-02  2.3819661730386719e-02  2.4228771421147776e-02  2.3594746653056511e-02  2.1885340827370557e-02  2.2074127191470009e-02  2.2305862879690525e-02  2.1468358180730767e-02  2.4198802388010067e-02  2.6278177194993733e-02  2.6097887866351348e-02  2.6251314156796272e-02  2.6067448321639868e-02  2.2069867048123575e-02  2.2192196069830222e-02  2.1586193287014763e-02  2.6969162269199116e-02  2.7255264542920252e-02  2.0207751950710093e-02  2.0124819731189389e-02  2.0558575425324528e-02  2.3823014414560105e-02  2.3817141308935204e-02  2.5491966234409445e-02  2.5244517854673285e-02  2.5391861297658316e-02  2.4600572643902412e-02  2.4588375803082846e-02  2.4859796960888726e-02  2.3170123945360655e-02  2.2716391529287366e-02  2.2982030422165366e-02  1.9879947403474783e-02  2.4970549465220357e-02  2.4831624534277258e-02  2.5164475514406769e-02  1.9735789610732610e-02  1.9859569267690339e-02  2.4408079353922169e-02  2.5925737505560160e-02  2.5909375042154310e-02  2.6618753547335412e-02  2.6577419257658448e-02  2.2570137723732866e-02  2.4411761777285976e-02  2.1707845279361634e-02  2.1172658499912875e-02  2.3412222675012837e-02  2.6116852983946039e-02  2.2997763769473857e-02  2.1006261314729553e-02  2.1368730856172132e-02  2.4341295738504375e-02  2.0592936958713896e-02  2.6823677804325898e-02  1.9863485145342762e-02  2.0089229919803341e-02  2.0873064977285517e-02  2.0633649169804789e-02  2.0135345107302260e-02  2.0455993238937983e-02  2.4089118933212472e-02  2.5051075499607597e-02  2.2899009815421100e-02  2.2393344967936699e-02  2.2648940087834975e-02  2.6453069621400246e-02  2.6436469224058522e-02  2.2511320689222330e-02  2.2054433156341792e-02  2.6897311885397304e-02  2.7310881101650766e-02  2.0948550858014805e-02  2.1105563341205582e-02  2.1616404264888322e-02  2.5589339017594991e-02  2.5750556920795101e-02  1.9727109627952048e-02  2.2737088659355045e-02  2.2225894903154374e-02  2.5739442288645217e-02  2.5931940229133980e-02  2.5696364534667289e-02  1.9670099362255677e-02  2.5718520009144527e-02  2.4672544468996950e-02  2.5295460887600481e-02  2.5548114356480741e-02  2.6609736487123437e-02  2.2574055345410848e-02  2.4531035333012499e-02  2.1242212703600313e-02  2.6331596185722676e-02  2.6102845145992856e-02  2.5092835688661917e-02  2.6684237904212087e-02  2.7472229408764034e-02  2.7398142197634413e-02  2.7554867264638558e-02  2.6755352169777855e-02  2.5903551307592587e-02  2.6293130572452125e-02  2.2398719397172046e-02  1.9544750478963573e-02  1.9636831354709335e-02  2.6212791893610303e-02  1.9731499723289907e-02  2.7647434161941816e-02  2.4134455043719819e-02  3.4784305835554364e-03  2.6533109562200544e-03  5.4301398633321762e-03  4.0594218693383415e-03  2.8758638137599952e-02  2.8220722240700154e-02  2.8436259697778143e-02  8.5673131328417154e-02  9.3557594073525222e-02  1.0851816568014974e-01  2.6607658659633857e-02  2.6404907352253031e-02  2.6368856819745250e-02  3.2012001821968235e-02  3.1369960020519561e-02  3.1057551277554541e-02  3.7371992427749905e-02  3.6700880862315599e-02  3.5776137290597913e-02  4.9178510623309052e-02  4.9715534093773266e-02  4.7067703514517875e-02  2.3318611282843658e-02  2.3627869628207971e-02  2.3153676835944173e-02  2.7153324339263957e-02  2.7573245884597791e-02  2.7167890951120450e-02  2.7607290568481498e-02  5.5150708062905156e-03  8.1949307492614285e-03  1.0012082100530752e-02  1.5521589725880053e-02  2.6138414421272106e-02  1.0000000000000000e+00  4.3070244789007855e-01  5.6110366272112577e-01  1.2228214015153082e-03  1.2271276213896237e-03  2.3512352566053920e-03  7.9896819544654829e-02  7.4052360476109982e-02  1.3472197708992867e-01  5.8789287355686413e-02  1.1353298916417924e-01  7.6718246114699976e-02  1.0888446932964756e-01  7.5343637120200882e-02  5.3380100495882682e-02  2.3249360186401256e-02  2.2717899638175661e-02  2.3381030378146445e-02  2.2643870258936341e-03  2.3906014172394744e-02  2.4268220371910485e-02  2.3780313316029308e-02  2.4088000726319021e-02  6.2739928244222531e-02  1.2605025369701972e-01  9.1374524293700271e-02  1.9104680254621374e-03  1.0612452782815751e-01  9.8244791540050849e-02  1.2325672371456521e-01  1.9991910931641227e-01  1.3683472010563308e-01  1.6982159343931993e-01  1.1294345798628140e-01  2.6061555037034504e-02  2.5733575350028598e-02  2.5919588732034052e-02  1.9602301540821116e-02  1.9840010745798616e-02  1.9646092819219405e-02  3.0144744288109493e-01  1.7087956850092553e-01  1.7751652071244536e-01  3.0168593769413238e-01  1.7114447742433028e-01  1.7779342160771555e-01  3.4729799032919263e-02  2.4426554304993606e-02  4.5385771827369678e-02  4.4980928110866236e-03  9.4980374147040705e-03  6.3327840677782406e-03  2.9620614578358500e-02  2.9017401951600602e-02  2.9321599779595774e-02  2.8797679934951959e-02  2.7164126556483828e-02  4.3324887708814418e-03  3.2994905658440758e-02  3.2856462250011480e-02  3.3837736314665572e-02  3.9220711184855525e-02  3.8466185557451842e-02  4.0087986892326677e-02  3.5404756047289099e-02  4.5272109818981783e-02  4.7826618073055993e-02  3.0477398008904057e-02  3.4918860093336251e-02  4.6596193048207418e-02  2.5898364978804316e-03  2.4387302038491963e-03  2.1802836221150711e-02  2.6133750940175934e-02  2.8577341226031741e-02  1.3386887840361407e-02  2.4031136341578087e-02  1.9123283469069080e-02  1.0890816095327775e-02  2.1822072935377294e-02  1.7573373769638915e-02  1.0747879254002064e-02  2.1723745921104064e-02  1.7485822650481157e-02  2.9928748368963080e-02  3.0396386991171573e-02  1.0211745713171939e-02  2.1268027546269316e-02  1.8066073626649675e-02  2.3278480285447531e-02  2.3072752337823105e-02  2.3501533909345642e-02  8.7765533230552834e-02  2.6973576494422384e-02  2.6765884446814273e-02  2.6861508843984413e-02  8.6209606504714473e-02  8.0722953077982898e-02  5.4074217672579084e-02  8.6066959416299466e-02  8.0564513079141808e-02  5.3935662648092041e-02  2.8969882713513959e-02  5.4611885708055551e-02  5.2415743913584834e-02  5.5305656629236796e-02  2.5781924800493283e-01  2.2962288208767181e-01  3.5515526446148298e-02  1.8551686675309771e-02  3.1496566953280236e-02  1.7361553256937653e-02  1.2213299908745676e-01  1.9456277888030140e-02  1.9725092326089207e-02  1.9595036323723398e-02  1.8489422740687589e-01  1.8709061401738669e-01  3.0092662181673668e-01  1.3755404075326416e-02  7.1542024044337531e-03  1.1835291634608493e-01  7.6660743238250173e-02  1.1855134330140220e-01  7.6891404097384597e-02  1.9944176195508447e-02  1.9848960449867455e-02  1.9618743834854898e-02  2.7611331023345776e-02  2.7262261211263027e-02  2.7572660151795048e-02  2.7297214235018730e-02  2.6279131911512894e-02  2.6336919922776775e-02  8.3738319632897990e-02  4.6283705612836852e-02  7.5349566211130536e-02  2.3748990667914735e-02  2.4175436122914711e-02  1.9944432756771633e-02  2.0167043616142296e-02  1.9947466143202953e-02  6.4991486487050243e-03  4.2870507608334619e-03  8.5394975897428484e-03  1.2220266397118422e-01  1.2209760192729491e-01  1.3224325220382712e-03  1.3450688632748648e-03  2.3050255678263901e-03  2.7827696286523179e-02  2.8089600350113569e-02  2.0814380199390770e-03  2.5200988336954479e-02  2.5066098693369860e-02  2.4862622276803525e-02  5.4701917388863382e-02  6.8131271500823778e-02  1.0111140431478645e-01  1.4345268627133673e-01  2.3105672001455531e-02  2.3671420289877568e-02  1.2853757573331072e-02  2.5465869854976640e-02  2.5250933715450893e-02  2.5250654586461935e-02  4.6294157281993625e-02  4.7695792039044269e-02  4.8454931578849871e-02  4.9950565723350854e-02  9.3986170900920818e-02  2.7500824064116133e-02  2.7725256459254048e-02  2.7531082335801666e-02  1.9698241669570335e-02  1.9749654254259570e-02  2.1651858498062546e-02  2.1973829259431213e-02  2.2117922567282112e-02  2.7353293183043904e-02  5.2019918086794285e-02  1.5903325287802555e-01  1.1601191619751312e-01  3.0989038358233423e-01  1.8715772224597427e-01  1.8465973018824161e-01  1.1309280914175704e-02  1.6079643810713531e-01  3.0736282413352911e-02  3.0768913216949075e-02  3.0123068477583313e-02  2.9183616716045271e-02  2.9126568623480228e-02  2.8692287831308453e-02  2.8626167407026969e-02  3.0174255434877076e-02  1.2994618618311710e-02  7.8418572246783516e-02  6.6376357823989124e-02  7.9698910346133037e-02  2.8800318413498266e-01  2.8826312797612708e-01  3.0198769243375067e-02  2.9588319522832052e-01  3.0613942359565660e-02  3.0263666646743327e-02  2.9918745995513044e-02  6.7946407557835153e-02  6.0598162893946712e-02  3.5968222952671200e-02  3.4963735671037603e-02  3.4981376144080562e-02  3.3425964872855887e-02  3.4974394320728873e-02  3.3365379121492456e-02  3.4839898764510741e-02  1.8105964708042193e-02  3.5679711210686131e-02  3.4692036138239922e-02  1.8029110567323581e-02  3.5524476874957182e-02  2.7710879197325747e-02  2.7442102629550619e-02  2.7840073591210390e-02  3.4630129476889426e-02  3.2908684654538584e-02  2.8950661255423414e-02  2.8442913175614960e-02  2.8463723162389057e-02  5.0023657182308022e-02  1.1869940841144680e-01  2.2688613028819245e-02  2.1351712408267168e-02  2.9547536256117860e-03  4.3477779002825210e-03  5.4524276198746292e-03  1.2916576181715511e-01  2.6103477440397843e-02  2.0182397795663332e-02  2.3030765260077295e-02  3.2382899510610808e-01  1.5938352990699928e-01  2.7125191720624975e-01  2.2902339882484319e-02  6.9021559179836111e-03  2.2007125111758376e-02  2.1423823982958192e-02  2.1415602709041789e-02  3.6199754610937940e-02  7.4831334776199734e-03  1.4341812440267877e-02  6.8225991426203274e-03  9.3245325839780256e-03  1.0000000000000000e+00  5.2059729601306293e-01  7.1391574607709751e-01  2.6331568894329489e-02  2.6710435612158651e-02  2.6289125507259519e-02  2.5306142942356145e-02  2.9646055542787528e-02  2.9107878978781043e-02  2.9613017853152224e-02  2.9221672048117001e-02  4.1877060059672511e-02  2.2265724099705547e-02  7.0203889311600348e-02  2.4076633918712131e-02  4.1825480224156365e-02  2.2138854392271666e-02  1.8915509098300543e-01  3.0994982745021610e-01  1.1604702330330399e-01  1.6740587182188657e-01  5.8752648965678847e-02  3.9280635346354141e-02  2.6570986940054737e-02  2.6832088626105484e-02  2.1057581433825356e-02  2.1661822658597441e-02  2.1136355156343808e-02  2.8488778550086108e-02  2.8258233420906907e-02  2.8765990829838783e-02  2.8589606635909197e-02  4.4489625141625404e-02  2.6007721851009753e-02  4.2138238092985794e-02  2.2917111626048141e-02  2.8567658289301752e-02  4.2026693259121520e-02  2.2771649974852072e-02  2.3858802244293778e-02  2.4220376699598999e-02  2.4479376750387329e-02  2.7666472309505561e-02  2.7415777931562083e-02  2.6291308502070006e-02  2.6100318746198111e-02  2.6265731210501082e-02  2.6069166000452164e-02  3.2663395029003978e-02  3.1829752268556194e-02  3.2836329156971114e-02  3.0941986482994378e-02  3.6087464366004227e-02  4.9963244371277346e-02  2.3100108150271186e-02  2.7573241531473312e-02  2.4742034845236710e-02  2.1655614014546527e-02  3.9607532717789454e-02  3.3064291811070562e-01  6.3152948193961078e-01  2.7995376915651449e-02  2.1905710398196530e-02  2.5019828840469716e-02  5.1858637808500432e-02  2.7948120612816832e-02  6.0823568103097955e-02  5.9254571371891475e-02  6.4597749609208804e-02  6.2658586974895444e-02  2.6737496650004706e-02  3.3512665172952948e-02  3.2196012680631513e-02  3.8124668361677293e-02  2.6793991401322225e-02  2.6606753337993692e-02  2.6380679183389356e-02  1.7832608039565583e-02  1.4444297956324806e-02  1.2787644540579951e-01  6.9183490873264850e-02  9.5735992182246002e-02  1.4268313239667211e-02  2.3430207398254851e-02  3.8866175879199126e-03  2.2244919698635146e-01  1.5352422549355182e-01  2.9877330982625117e-01  1.4512123715033201e-02  2.5575524133301142e-01  1.5319618246136224e-01  3.1651748445964917e-01  2.6665602082643597e-01  2.0199930927350684e-02  5.4642882391220012e-02  2.7001783785218034e-02  2.7297413743522646e-02  1.2529063571952279e-03  1.0000000000000000e+00  4.4994998637577205e-01  1.1755549161979442e-01  2.2289044018090684e-01  1.5458809565213696e-01  2.9947171920020449e-01  1.1679708326415530e-01  2.2244321081522397e-01  1.5418047476569674e-01  2.9915926999261150e-01  1.1660540220911535e-01  2.2218245343726908e-01  1.5393342393749246e-01  2.9894756353824131e-01  1.6924433963213050e-02  1.0288322421709319e-02  1.2070744220955313e-02  2.4267480818511749e-02  2.7018903065153217e-02  2.7215259901672652e-02  3.1819526806803273e-03  1.9971109286020691e-02  2.0194518135439293e-02  2.0566820463261738e-02  2.0618031095277642e-02  8.5481652822948451e-02  7.8086955507305447e-02  4.9326157833337790e-02  1.4302308719781099e-02  1.6616299425071826e-02  2.4470247984431152e-02  3.1723608962462770e-02  1.8886159509005362e-02  2.0424929333549384e-02  2.0748534179184753e-02  2.0925818573467918e-02  2.3601021886831944e-02  1.8029853550751404e-01  3.6280959282221112e-03  6.8119995224897702e-03  6.0604919339051315e-02  5.3231224367686285e-02  5.6849431872675819e-02  1.0000000000000002e+00  9.9999999999999989e-01  5.8802154774763304e-01  1.1854420681550822e-01  2.8343303412952273e-02  2.8192520095804720e-02  2.0998027197578834e-02  2.0984935964531600e-02  2.3687216044533877e-02  1.5839890036566415e-01  2.6879286444724970e-01  2.4091789256077814e-01  1.6762187222789704e-01  7.7100296251792669e-02  1.6787853385772136e-01  7.7254131748279581e-02  1.6941902901331518e-01  7.8891390645498480e-02  2.5522789433617597e-02  2.5324259090589153e-02  3.0370062603365219e-02  2.1355044570580753e-02  2.7044916632034864e-02  2.7342718883590633e-02  2.7077045940259649e-02  2.8580546817334831e-03  3.7862504241392451e-03  3.3638370457970530e-02  2.0706447246243872e-02  2.0513998236373662e-02  1.2748905959385336e-02  6.5341712623324753e-03  2.9090932268355595e-02  2.3381775450264541e-02  2.3288349407489004e-02  7.0998336661828879e-02  7.8876744092860926e-02  6.4370439357021789e-02  7.9335813561723298e-02  2.5374292599276715e-02  2.8823254220935901e-02  1.1384645725491749e-01  1.1360192511373880e-01  3.1865415669983764e-02  1.6867893576057228e-02  1.9740324157145744e-02  3.2539447953019857e-02  1.7616364939682636e-02  2.0477505729109672e-02  2.3740792823489978e-02  2.3223962138083028e-02  5.4293530915578286e-02  6.4693551110902012e-02  7.1974215583591281e-02  2.6651053520095985e-02  2.6784868816261718e-02  2.6549279383484926e-02  2.7250138409910373e-02  2.9423837949821265e-02  2.9057238021903405e-02  1.0000000000000000e+00  1.0000000000000000e+00  5.4532581503849342e-01  4.1576219992334523e-03  2.4537797162677299e-02  2.4474287765415305e-02  2.4784940525438202e-02  1.6553214258999315e-02  2.2209166836668019e-02  2.1304526565115996e-02  2.8704724328223522e-02  2.3851591661303174e-02  2.7181557254510297e-02  5.9035277583430502e-02  6.0629959267906944e-02  6.5495048749567256e-02  2.9246887712262006e-02  3.1574695348250671e-02  2.7591412506550270e-02  2.0256655035481419e-01  1.6418242396286656e-01  1.1542603039700426e-01  1.9779557018573209e-02  2.4470578378809659e-03  5.5585940413984708e-02  1.0023538579569563e-01  2.4669814217251108e-02  2.7058143709769659e-02  7.7116963146441772e-02  3.0761106352117838e-02  3.0155702595037207e-02  2.9924823766967586e-02  4.5643151801970833e-01  3.4261543393697066e-02  3.7728681936470575e-02  3.5255667380463757e-03  4.4057336141582306e-03  4.5458889267416518e-03  1.4946493027595772e-03  1.5956940708085612e-03  2.4899983391049544e-03  1.3366581944307331e-03  1.3197204204078317e-03  2.3551746259197225e-03  1.4002194989481958e-03  1.3865267930395016e-03  2.4063642439326005e-03  1.4043163117548236e-03  1.4083304675985089e-03  2.3990833584461124e-03  1.4236288989923108e-02  1.7670194253025715e-02  1.6839960739328030e-02  4.2450355885221322e-02  4.1168917738246234e-02  4.1604664135666825e-02  3.6014872648664091e-02  3.5239752387871699e-02  3.5035762117758232e-02  2.9933007830336585e-02  2.9422278279938176e-02  2.9784859212709618e-02  3.6007510198289301e-02  3.4423955891162011e-02  3.5392447574274490e-02  4.0440694227326254e-02  3.7965319512360575e-02  3.9303505073290050e-02  2.8656790860508669e-02  2.8336733881109754e-02  2.8158041164972138e-02  3.3308143678426570e-02  3.2766929674115992e-02  3.2462521720866250e-02  3.7820198635629215e-02  3.6878500272637373e-02  3.6817954984736473e-02  4.5207559409333839e-02  4.3787077772639120e-02  4.4695672628792357e-02  1.0000000000000000e+00  1.0000000000000000e+00  5.3515691956432054e-01  1.0000000000000000e+00  1.0000000000000000e+00  5.3495230889505285e-01  1.7200795236859828e-02  2.1216996457588753e-02  1.0597023311782389e-02  1.0000000000000000e+00  9.9999999999999989e-01  5.3471671151061095e-01  1.0000000000000000e+00  1.0000000000000000e+00  5.3845749655281461e-01  1.0000000000000000e+00  1.0000000000000000e+00  5.3543361504888853e-01  9.9999999999999989e-01  1.0000000000000000e+00  5.4478082498069202e-01  1.0000000000000000e+00  9.9999999999999989e-01  5.3908788081553227e-01  9.9999999999999989e-01  1.0000000000000000e+00  5.3528205797160100e-01  1.0000000000000000e+00  1.0000000000000000e+00  5.3889363519663647e-01  3.0395766226297867e-02  3.4962261283711209e-02  3.5784009984108155e-02  1.0000000000000000e+00  1.0000000000000000e+00  5.3390686492619632e-01  1.0000000000000000e+00  9.9999999999999989e-01  5.3377466673527019e-01  8.9765286405171923e-03  1.1346669168950264e-02  1.0633096835629007e-02  1.0000000000000000e+00  1.0000000000000000e+00  5.3636823116801136e-01  2.3807279157758115e-03  2.8774238463944225e-03  3.3565777408707436e-03  1.3556463796440574e-03  1.4182783555871182e-03  2.3809960085340526e-03  1.3528600658100564e-03  1.3461195144064441e-03  2.3673441728259497e-03  1.4061128398132066e-03  1.4044150258183986e-03  2.4020992900051241e-03  1.3963786115603739e-03  1.4099986425525732e-03  2.3615731258374083e-03  2.7420042783837209e-02  1.3713448963808553e-01  8.3946419152525972e-02  1.8211761941401411e-01  2.9361262600093137e-02  2.8807574583531753e-02  2.9007837368220202e-02  2.1394960454821702e-02  2.1066958028538547e-02  1.3712792255658324e-02  1.6758327043457748e-02  2.4186071945922039e-02  3.2249233064880929e-02  2.4991652459753023e-02  2.5525122411397708e-02  2.5185008740031236e-02  1.4229272618241057e-02  1.6921940811290941e-02  2.4395092710924122e-02  3.2407423904690251e-02  3.5028765904349779e-02  3.3816928740888173e-02  3.3766798715278802e-02  4.4669431823344125e-02  4.2128877360923841e-02  4.2763354498634040e-02  1.1187582348699883e-01  1.1159174479305957e-01  5.5261791327290311e-02  2.5313137804190863e-02  2.5672126693850869e-02  2.4295952370816255e-02  2.4114813623899729e-02  6.3504588724292876e-02  2.5731353444562361e-02  2.5281375586241987e-02  2.5202549849332352e-02  2.9213259924098611e-01  1.0101605217873680e-01  5.0741807988635590e-01  2.6836451112379200e-01  4.2023037125524321e-01  2.2904131014469739e-02  6.6191793136396893e-02  3.3744374610742484e-01  5.2234652524625245e-02  7.0856503490117712e-02  2.3849800125980775e-02  5.4236395008408309e-02  8.4076571483217913e-03  2.4288216192717291e-02  1.2148303628603491e-01  2.7172187375606366e-02  4.6528115227563636e-02  1.9264872921613205e-01  1.8628355012623912e-01  7.1321454382429716e-01  3.9262261628042389e-02  4.3052532057763569e-02  4.5315533807846579e-02  2.9106682318584778e-02  2.3166134538392072e-02  5.0132080125429600e-02  3.8178647118273824e-02  3.6336064256502223e-02  3.6101166029225293e-02  3.4473987372748503e-02  4.8568852582031481e-02  3.0088327424748141e-02  2.8954269193701199e-01  1.9097287465018806e-01  2.9530385620869792e-01  1.8667092951420042e-01  1.9073921553047496e-01  2.9504955198505645e-01  1.8638182644017603e-01  8.5471402093635254e-02  1.0335440547590311e-01  5.6883545030854438e-02  2.0233183416723730e-02  2.0240423725764078e-02  1.0000000000000002e+00  3.2952895590291353e-02  3.9806672712459600e