<?xml version="1.0"?>
<VTKFile type="UnstructuredGrid"  version="0.1"  >
<UnstructuredGrid>
<Piece  NumberOfPoints="7728" NumberOfCells="15128">
<Points>
<DataArray  type="Float64"  NumberOfComponents="3"  format="ascii">0.4301528014186955 0.4298797043935643 0  0.4293248134935059 0.4185586764506676 0  0.4214834124720171 0.4218324831403495 0  -0.08559264909810248 0.2184876237910115 0  -0.09523162420417441 0.2194437160028275 0  -0.08791185649983577 0.2091073943060879 0  -0.1465123035884944 0.432717119960178 0  -0.1371834592601369 0.424698075990399 0  -0.1385288937608097 0.4373976701603043 0  -0.5 0.4127566896324213 0  -0.5 0.4031812128200121 0  -0.4902994074073384 0.4074494795824961 0  0.09024613933824489 0.4781120739656126 0  0.0933155188518916 0.4895845157020997 0  0.0829774079100483 0.482288729167381 0  -0.1287167150007658 0.4338930560544612 0  -0.03994054255915485 0.1843739599920573 0  -0.03212149259489155 0.1760718970112855 0  -0.03198564666646322 0.1872563943297354 0  0.1506583986267356 0.2874403806624499 0  0.1612349119169872 0.2797164781725275 0  0.1526885773121235 0.2768775068452843 0  -0.3041933375414425 0.1552962787369889 0  -0.2958070052422007 0.160597789145515 0  -0.3063261001846426 0.1651229488266085 0  0.08364681739780096 0.4918389643252714 0  -0.4010738657800832 0.3107072169746339 0  -0.4031376899632865 0.3218902724669491 0  -0.3941869208863597 0.3191578499678918 0  -0.4824164333943274 0.3529424973048867 0  -0.4904591394543069 0.3605919582069659 0  -0.4787282960730884 0.3632812589732464 0  0.1621937559941708 0.2897084626288494 0  0.2200000000007767 0.5 0  0.2266770459673737 0.4891454605377314 0  0.2150000000007906 0.494070635928735 0  0.01132785076087824 0.2351265822100481 0  0.004025061924042422 0.2270398149852844 0  0.005334166261014847 0.2400744598531132 0  -0.1809699693600755 0.2351266288121367 0  -0.173667878605497 0.2270397067322088 0  -0.1749758876640578 0.2400736572588687 0  -0.04735416238385137 0.3084916580310646 0  -0.03958104525790275 0.3017109721815985 0  -0.04022031810808564 0.3127001313991637 0  -0.439331219421661 0.3766174521400052 0  -0.4302809024495696 0.3853349020424781 0  -0.4313681272434796 0.3726647714920578 0  -0.01254336186881605 0.3548147785220297 0  -0.001510041189534698 0.3520156633609962 0  -0.005477322840463117 0.3637660352473006 0  0.2906026827068128 0.2862785659764152 0  0.3019438881330127 0.2827926005078699 0  0.2952498681705479 0.275480309304373 0  0.2060892002931355 0.1690404904672964 0  0.2145887834930549 0.175077624252056 0  0.2045139796654503 0.1762110796515674 0  -0.4408001217766457 0.391028286200248 0  -0.4303915784012729 0.3959889621446451 0  0.0583972750586039 0.4132203121003322 0  0.05371171918015882 0.4039641502889484 0  0.05076859829744053 0.4145266969422832 0  -0.002003683238403816 0.2350264315399713 0  -0.298225204307873 0.171080096427281 0  -0.4859057911139843 0.3690968765276264 0  -0.1677198406702055 0.2350008664285762 0  -0.4245313652317673 0.2457897297396278 0  -0.4349627676518225 0.2495597222555704 0  -0.4264717645177953 0.2553275416054197 0  -0.07441820092927255 0.3437430193407162 0  -0.08523316222954795 0.3486935209070671 0  -0.07479864842347012 0.3521312061977401 0  0.2462109850665596 0.1417290005956053 0  0.2353922208483022 0.1372640293053277 0  0.2447393393579754 0.1343684741689244 0  0.126143890147936 0.4479298256245561 0  0.1330723166848467 0.4400180449370222 0  0.1220152276540013 0.4409271500149842 0  0.1759683609380617 0.3040836159903125 0  0.1859922824731085 0.3088330642455778 0  0.1755003264649886 0.3158335207574144 0  0.05503047726665449 0.1882285333120312 0  0.050052970836762 0.1790934328072465 0  0.04415367546269549 0.1834694162665104 0  -0.224673334411532 0.1882285333116649 0  -0.2196958279817065 0.1790934328069041 0  -0.2137965326077032 0.1834694162662072 0  -0.4771566242214346 0.2678067479529653 0  -0.4663223229417238 0.2714736992055615 0  -0.4753585172166018 0.2775946395024117 0  -0.3080357142862469 0.120088589247209 0  -0.3076616386178176 0.1303414909000259 0  -0.2994190930055523 0.1217218352670721 0  0.3700000000003606 0.5 0  0.3632258362414532 0.4901372357141994 0  0.374511143063552 0.4919670291702244 0  0.3721921806399926 0.3128134837372821 0  0.3834623560781545 0.3095932167030788 0  0.3772490052446142 0.3193807204532692 0  0.1375201342840787 0.2685160580029517 0  0.1312815534866872 0.2588224405859477 0  0.1417106244850543 0.2605964426603999 0  -0.1779711807868274 0.3965737881816591 0  -0.1728088211796831 0.4075388118969518 0  -0.1844939125695736 0.405422086108046 0  0.0380141700321618 0.1289763399652269 0  0.04027212952246088 0.1405769561884672 0  0.030997110651545 0.1377228012821126 0  0.1720143924696237 0.2880808468773411 0  0.1713428117112401 0.2967124323315568 0  -0.3419006693977408 0.4302415922263585 0  -0.3321022908240916 0.435291410928624 0  -0.3401752226292143 0.4401723469420832 0  0.4397694620430982 0.3500578817184244 0  0.4500550303837885 0.3504222172349927 0  0.4448065729780818 0.3408602469709414 0  0.09071916951411059 0.2971106492655552 0  0.07851527399279083 0.2981859373806167 0  0.08257262281262831 0.2886530030888572 0  0.1852963021610818 0.3177132986070278 0  -0.3772044495878739 0.4489102411091769 0  -0.3815819312659189 0.4588379539619521 0  -0.3724579371629195 0.4561084312058448 0  0.1709851269258648 0.1330181685335966 0  0.164577493084018 0.1256563390042854 0  0.1612009715464842 0.1334829469959427 0  -0.3766369793583356 0.3222566016949557 0  -0.3798475359811067 0.332733809155234 0  -0.3860972446368247 0.3237932660840142 0  -0.2122656284968389 0.3559209481510414 0  -0.2231390377576284 0.3520697848885052 0  -0.2166994866486932 0.3467150550299288 0  -0.2044084873617347 0.3731423582697778 0  -0.2151834419273531 0.368036346565584 0  -0.2112650907921009 0.3788430017631544 0  -0.3597733961336687 0.3840520005832508 0  -0.3645674422101735 0.3946943527768993 0  -0.3715903435286772 0.3851913851676531 0  -0.1396604493015806 0.1583480566930887 0  -0.1476898591425476 0.1534110385803823 0  -0.150748914431126 0.1632560903498436 0  0.2801779821035303 0.2337058656633353 0  0.2731028247806488 0.2411147198145403 0  0.2741862973430237 0.2297025072272037 0  -0.4653214619123232 0.2782375819458921 0  -0.1429809562578837 0.1680883865846629 0  0.03076523486684546 0.3398304516498473 0  0.02178021474204219 0.3476575260646912 0  0.03143653487241189 0.3502278421827749 0  -0.08928571428685395 0.1 0  -0.08035714285830731 0.1 0  -0.08276538418135869 0.1094829999223174 0  -0.08069302279494821 0.3566885450668409 0  -0.04535471151353108 0.3757680529374156 0  -0.03859770699626507 0.3853796912484584 0  -0.05055825188769141 0.3832542530770671 0  -0.09773272728425204 0.2094032520804052 0  -0.3755249277394466 0.395204975502496 0  -0.3818438337622291 0.1675479091046081 0  -0.3775298320303543 0.1573948891566206 0  -0.3714330686715698 0.1655280777467928 0  0.2611441333065299 0.2837434038641459 0  0.250389075822865 0.2844747710617656 0  0.2561769911976881 0.275239152219664 0  0.1400000000009986 0.5 0  0.1300000000010264 0.5 0  0.1349504119828615 0.490153774714903 0  0.1448159640040156 0.4121806247126251 0  0.1457144574024879 0.4240753373323932 0  0.1357860771841101 0.4162773248813054 0  -0.4225327081968155 0.2272117111835015 0  -0.4250360168849188 0.2362480192972036 0  -0.4325146555307054 0.2311871907861572 0  -0.002992699553798008 0.3405447382417915 0  -0.01452811117261945 0.343206320288175 0  -0.01182445829985416 0.3328008695468301 0  0.1273448950177487 0.2677134063181503 0  0.3415914478252483 0.4534929692314442 0  0.3537376573339029 0.4490242263450663 0  0.346141537813676 0.4421091341179351 0  0.0005198194491365062 0.123612605363961 0  -0.005194376127262185 0.131492584272441 0  0.004390696803407098 0.1304885273827742 0  -0.0848223841956393 0.2584291311739456 0  -0.09174751492901442 0.2489755555618796 0  -0.08470938645110004 0.2463537019950441 0  0.07602001733128075 0.2675157652518768 0  0.08611012667280619 0.2704197955518713 0  0.07673977553853591 0.278202029933495 0  -0.121992985972394 0.400748999238995 0  -0.1337095685129487 0.398136086434097 0  -0.1273237073641656 0.3911356136235424 0  0.3757926671360805 0.1557340965981443 0  0.3854304124289478 0.1526976661163702 0  0.3760399509945578 0.1480053341020623 0  -0.3699755295254641 0.4309022120114983 0  -0.3709419539169024 0.4404044179511574 0  -0.3795485569097365 0.4325538394313739 0  -0.02465511021035985 0.167503690332337 0  -0.03408009838530297 0.1597906272722227 0  -0.02212557985219664 0.1593500853083564 0  -0.1292441398206726 0.2689679585561044 0  -0.1327327765406075 0.2577804396442022 0  -0.1234173649494807 0.2580309397155822 0  -0.04859450025076664 0.3927060845745354 0  0.2366404325300897 0.1446292614903707 0  -0.2016815205812364 0.3623473964956916 0  -0.2024193027621807 0.350928465340433 0  0.1334854826555854 0.4262944628896248 0  -0.1280211915376581 0.1955220234751905 0  -0.1363148358358212 0.2046602976620198 0  -0.1350972707801067 0.1937109323622725 0  -0.2507887552267173 0.1768339856046225 0  -0.2527867650419344 0.1868715348518789 0  -0.2431592714029244 0.1809864432258096 0  0.4372814776475923 0.343389655813208 0  0.2293266361657646 0.3399562932097067 0  0.2320386238240533 0.329334299257138 0  0.2216597149270816 0.335613804937926 0  -0.3855967450785084 0.148867636996457 0  -0.3745895056076544 0.14917887153352 0  0.07472897263274798 0.3608304199238726 0  0.08186003242608114 0.3678333471925798 0  0.08069069017702166 0.3558084291272243 0  0.08742687919768305 0.2806619320217654 0  0.2346789143311082 0.2276953229562641 0  0.2296025551115074 0.2336164243803852 0  0.2265641621522574 0.222590889762379 0  0.2379675577345038 0.4330121119995557 0  0.247875479721261 0.4374555008681802 0  0.2351491730493422 0.4414619415468398 0  -0.2434391441115647 0.1652180752555862 0  -0.2326190756943587 0.1662516752342565 0  -0.2418052846736646 0.1734912016800042 0  0.07272758104574213 0.1661064342774871 0  0.06291104200820101 0.1663038564678387 0  0.07216242752883364 0.1734912016802553 0  0.1926545143398746 0.218763
[...]
<PointData  Scalars="f_26"> 
<DataArray  type="Float64"  Name="f_26"  format="ascii">1.1871986972840609e-02  1.1815819061459659e-02  1.1746292647236832e-02  2.4773012677899806e-03  2.1168493426348364e-03  2.3656147647522297e-03  1.3564432819844034e-03  1.5056761089767016e-03  1.4950468498948898e-03  2.3032805413434463e-04  2.2636035601572869e-04  2.1898864484734499e-04  7.6946399238739891e-03  7.7669771751000842e-03  7.4876863228046991e-03  1.6678052178953399e-03  5.0267686370075457e-03  5.6984702756119757e-03  5.5436833655583360e-03  1.0736501958439882e-02  1.0982829311985650e-02  1.0923084283622821e-02  9.5704818913051510e-05  8.1146560444348846e-05  7.9619576131113612e-05  7.4976263879417849e-03  5.1187729210205785e-05  5.0748803883271679e-05  4.4856772723174759e-05  1.7577105251355191e-04  1.9486183340745590e-04  1.7402593038284738e-04  1.0852899527998991e-02  1.0257947022395025e-02  1.0338097473700488e-02  1.0196222126912669e-02  7.3120180951600075e-03  7.0829871747245202e-03  6.8883957211671757e-03  4.0821031809578728e-04  4.5390947237022080e-04  4.8621660291522695e-04  3.8429192821435201e-03  4.1632536162038263e-03  4.0946670492400866e-03  9.4431562921948819e-05  7.9563074593223454e-05  8.0582283057066876e-05  4.9160966846572372e-03  5.3277744626869300e-03  5.1206901464826184e-03  1.1190795263776606e-02  1.1150627738113190e-02  1.1172277085718269e-02  1.1823768117275910e-02  1.1718558325272195e-02  1.1862905106709625e-02  9.9126418684645994e-05  8.0391749577759925e-05  6.9895820632364337e-03  6.8936797073774559e-03  6.7456292529866025e-03  6.5902913951555531e-03  6.8652830403767904e-05  1.9159168899606104e-04  5.5169118585867392e-04  6.9046542586515772e-05  7.2124676866625387e-05  6.9993202666912162e-05  2.8880868849895823e-03  2.5805005085398612e-03  2.8762371569204569e-03  1.0977837359011479e-02  1.1086351570108758e-02  1.0908270748431974e-02  8.6907878849020494e-03  8.8837497197867005e-03  8.6197404262012885e-03  1.0825931122986741e-02  1.0873848661220247e-02  1.0686980984603590e-02  1.1071215508151237e-02  1.1271241030615499e-02  1.0786018585511809e-02  7.3398824613854282e-05  7.4535037510399264e-05  9.1789432218625499e-05  1.0759175488363205e-04  9.9483358897022042e-05  1.1289107760254741e-04  3.8205104888913602e-04  2.2668694623381228e-04  3.4734105906613667e-04  1.1407005401925291e-02  1.1356905164213525e-02  1.1441338641609270e-02  1.1027875249367023e-02  1.0994970797554739e-02  1.1055225457600669e-02  1.0853156228142650e-02  1.0934716277497255e-02  1.1053451758874854e-02  8.5552413990652026e-04  9.3825134940139538e-04  7.9080463287668594e-04  1.3851533879290475e-02  1.3049112027486737e-02  1.2700302150945243e-02  1.0981040964880560e-02  1.0864120386081155e-02  1.6149510780444461e-05  2.4135484033057754e-05  1.7454907679695958e-05  1.1438142855748368e-02  1.1520114689133986e-02  1.1382719840527288e-02  9.2599608985642224e-03  8.8611129695636628e-03  9.1662273347740686e-03  1.0773036406232093e-02  1.5466194665065589e-05  1.7787142971359762e-05  1.2928294286099528e-05  1.2367956154300502e-02  1.2496616471366797e-02  1.2627721751457792e-02  3.3615446794533760e-05  3.2706962183748829e-05  3.8529736798323176e-05  4.3872037235904071e-04  3.5205536595188787e-04  3.8938284799423480e-04  5.3467118797632940e-04  4.3548078172007796e-04  4.8414306236388779e-04  1.4939240400609671e-05  1.4727977263187469e-05  1.8307854669915775e-05  6.0368282212306030e-04  4.6337747479750140e-04  4.6218816521653619e-04  1.1205639855870943e-02  1.1269001538800375e-02  1.1241658865580583e-02  1.0236162035661667e-04  5.9927345417205011e-04  6.6052004996277587e-03  6.2086287811761263e-03  6.5375679541347332e-03  2.5388165273045674e-03  3.0198283121456678e-03  2.4810195173727290e-03  2.7078838428339792e-03  3.7479671418272952e-03  3.9388750917264282e-03  3.5744258217060522e-03  1.9974496169307180e-03  1.8930578196832135e-05  8.6703598161717383e-05  9.9382216899170897e-05  9.0626581997747734e-05  1.1272808196100517e-02  1.1286912943859872e-02  1.1309945399995342e-02  8.9107716805681240e-03  8.6868427373292777e-03  8.8021236424040642e-03  9.2843608138360820e-03  9.2334615465079484e-03  9.0650800261392935e-03  6.8140523544156495e-05  6.8735883431312030e-05  6.8956592443021719e-05  5.3457120246127353e-03  4.9034017627423432e-03  5.0664172191650352e-03  1.0699402581379105e-02  1.1208582792859405e-02  1.1279842269859680e-02  1.1231910806318206e-02  1.0928736976865572e-02  9.7338189215182939e-03  1.0872760493960996e-02  2.5496348888150856e-03  2.3043273498743653e-03  2.5463959310200071e-03  9.3842086812351237e-03  9.6441108120579756e-03  9.1820286070807104e-03  1.7639717444078852e-03  1.5367021843820238e-03  1.6485903966759836e-03  9.7056947112639357e-03  9.5735625636003546e-03  9.6180713058148549e-03  1.3269328990906034e-05  1.3072922212239961e-05  1.7779723545436127e-05  6.4581391729253163e-03  5.8189907431073001e-03  6.8737519395009996e-03  1.3293039108741608e-03  1.2147995894533055e-03  1.4233195740917556e-03  3.6210682350660914e-03  1.1156177924535018e-02  5.4077743092955722e-04  5.1355237804885060e-04  8.9569319829118730e-03  1.0433445651098941e-03  9.1283656890561672e-04  8.8148008034873734e-04  4.8270573423858164e-05  4.6982120068080205e-05  5.0018558017183670e-05  1.1360138880089589e-02  1.0934031784206689e-02  1.1015676417193223e-02  1.0915594537602470e-02  1.1488965670712003e-04  1.1786405276673385e-04  7.8951022822816505e-03  8.0433244689261160e-03  8.1297160008482871e-03  9.4723431556701671e-03  1.1529507010064735e-02  1.1546004242231591e-02  1.1595776197243038e-02  1.0557101825070138e-02  1.0634191013200575e-02  1.0507240379340020e-02  5.4374031963175506e-05  5.6481363820767699e-05  5.0899662783753182e-05  1.2702941140792224e-02  1.2418922378255875e-02  1.2333825690305165e-02  1.1817808462112413e-02  1.1728902943778147e-02  1.1747131548859435e-02  7.8041313487554357e-03  7.9035279344650752e-03  8.0646315041756917e-03  1.2105624772619982e-02  1.2247805950598781e-02  1.2064141352357975e-02  4.1831481388762673e-05  4.0355773357200560e-05  3.7627018028380828e-05  8.7861720278268572e-03  9.1499190752032753e-03  9.1675470611421173e-03  8.1696071138341406e-03  4.4845863845470553e-03  4.5901280993282329e-03  1.0760901945177323e-02  1.0737508434027121e-02  1.0818289932749293e-02  8.8510928770755993e-03  9.0350383688475380e-03  8.8359150123715584e-03  1.0523810771683547e-02  1.0791115657413197e-02  1.0633410874925281e-02  1.0268063751555383e-02  1.0193334762671586e-02  1.0125500216781144e-02  1.0775303442178811e-02  1.0778107031617403e-02  1.0839298407052216e-02  7.6044141084846782e-03  1.1135774072441441e-02  1.1166630979176690e-02  6.3438473637718153e-03  6.8343241873086132e-03  6.4655975696832286e-03  5.9630647219230783e-04  4.8345939903788237e-04  5.6948782145297338e-04  8.9105065548608582e-05  1.0175755936206827e-04  8.9446626563936948e-05  1.1061322787356798e-02  1.1102829653667221e-02  1.1112640117327875e-02  1.9211587979695347e-03  1.9607433586966046e-03  2.1287385882273000e-03  5.2743416582544671e-05  1.1296731244776139e-02  1.1473605163229674e-02  1.0007496927200824e-02  1.3618978525030036e-05  1.9070099666354599e-05  1.2927674554176885e-05  4.6153534248166712e-05  5.1320693356888332e-05  5.0753668647519846e-05  4.6698905695099100e-03  4.8791037675625353e-03  5.0126108399157539e-03  1.1658401493167802e-02  1.2162707256471381e-02  1.1045541682779386e-02  6.6335804362369476e-03  1.0572427250419859e-02  5.5163713428355902e-05  4.0352372773977304e-05  4.2455482550440449e-05  6.6828304771322442e-05  6.7874300701242776e-05  6.7976909614028360e-05  3.5928963152922840e-05  4.2643468789271140e-05  4.6585230417178822e-05  4.3186059471685629e-05  1.0233545276058567e-02  1.0297569345657493e-02  1.0166585110532693e-02  3.8394532552339292e-04  1.4628140059273932e-04  1.1454842766656116e-04  1.6146531521565180e-04  2.2050329469409389e-03  2.4249886403541647e-04  2.9677589728361578e-04  2.6026342758915841e-04  9.7052909738779892e-05  6.7787377945112266e-05  8.7741278034300409e-03  8.9534520159193845e-03  8.8291969569681498e-03  1.8090741574024188e-05  3.6720903008839313e-03  3.9038936203403202e-03  4.2358755403033290e-03  1.0565200827379766e-02  1.0660518820775936e-02  1.0962432796965838e-02  5.6044407762299302e-05  5.2828434539555085e-05  5.7395437100369478e-05  1.0231194508016414e-02  1.0169223205091699e-02  1.0031136676699970e-02  4.9457592357942141e-03  4.4744977197109003e-03  5.0517099420366125e-03  9.4382039448212378e-03  9.6129071578248005e-03  9.3372449973901130e-03  8.2432053170268197e-03  8.5614708310841631e-03  8.3558262486798200e-03  1.4138082293023765e-05  1.2893037760034478e-02  1.2681787858788793e-02  1.3111544571088400e-02  1.4768537337677177e-04  9.4527744380174062e-05  1.0551922935684541e-04  1.4334856794196448e-02  1.3760799209085042e-02  1.3748751466997283e-02  2.6809207823769176e-04  2.0892931808043653e-04  3.4814954117273788e-04  6.2237578515445368e-05  6.7713504162187984e-05  2.8099506087740918e-05  1.4810060033200716e-02  1.4726647946607217e-02  1.5201701460102343e-02  1.1610883874972399e-02  1.1693126524923561e-02  1.1882114400748330e-02  1.1902872606841884e-02  3.8411635807338895e-05  1.2271962427365119e-03  1.2087522250707331e-03  6.6627106683093420e-04  6.7753832563489125e-05  5.1222882267977058e-05  5.2650885204910856e-05  5.6404169197860472e-05  7.4567182002138197e-03  7.2535154887925458e-03  2.5541815045862534e-03  2.7763049273939093e-03  2.4689424076311250e-03  9.4090758236489384e-03  9.3421742543250124e-03  9.4617202249924238e-03  1.1663156975418462e-02  1.1599639572349340e-02  1.1666702645215282e-02  1.0367020898246411e-02  4.4491646135044515e-05  4.4249284800090123e-05  4.1976017716254515e-05  1.1300502441765189e-02  1.1244285593969013e-02  1.1287246037775183e-02  1.1750359827114891e-03  1.1544464789238619e-03  1.0045495310547581e-03  8.9668553350438045e-03  1.0858710233522556e-02  1.0785276665790145e-02  1.0817988512956317e-02  1.0640447864570626e-02  1.0738222143186951e-02  1.0637685180562906e-02  1.0475653677342154e-02  1.0624194573363928e-02  4.6712864447509115e-05  5.9618260965769838e-05  6.4912811040158581e-05  1.1738964161543504e-02  1.0348441470340008e-02  1.0228376744199278e-02  1.0355782390741464e-02  1.0671986397939178e-02  1.0547101266525491e-02  1.0611061588770681e-02  1.0194490373153260e-04  8.9338237506552366e-05  8.9441524969520892e-03  3.0831873648896673e-03  3.3989250410168541e-03  3.3530695842518528e-03  4.1228639027824280e-05  4.9098574419162853e-05  4.9766765169278867e-05  9.4123359134887978e-04  7.6139624429725173e-03  7.8918052404831022e-03  8.0032934141270520e-03  1.1245641118689649e-02  1.1209322191207753e-02  1.1227435441445518e-02  5.1258280685420059e-05  5.4244298247713152e-05  5.8647164001116143e-05  3.5708274524815550e-04  2.6856108536581116e-04  1.8152911332643685e-04  1.5344677539664774e-02  1.5039629594786032e-02  1.4493011893611553e-02  9.5303720683731190e-05  1.3000874183314281e-02  8.1712720949259153e-04  9.5729431821284256e-03  6.5212821539584867e-05  1.0850953092326263e-02  1.1235256764542640e-02  4.1898751085592406e-03  4.1059503142757190e-04  4.7572119645077895e-04  4.0646275006751831e-04  1.9919740879834001e-05  1.7704154735840872e-05  2.0048647687832680e-05  8.1693767849918743e-03  8.2461639526360438e-03  8.3738954260450145e-03  6.4538370042387531e-05  5.9080648133392378e-05  5.9143804457597046e-05  8.2903116923564238e-03  4.1804973489804476e-05  4.6118322053968422e-05  4.6617163829774553e-05  1.1341838543424293e-02  1.1200582056236301e-02  1.1299204075399910e-02  1.1602168140970365e-02  1.1409441422787841e-02  1.1754094604464501e-02  2.7833765803314038e-03  1.2077073176566838e-02  6.7835337421619799e-04  5.3974986945362115e-04  6.2759533803287502e-04  6.0546570291868480e-03  6.6318440765781167e-03  6.2634723392468120e-03  8.6580778209124909e-03  8.8289804173332931e-03  1.0205669062840053e-02  1.1157719894126046e-02  1.1090457140335300e-02  1.1101070376793060e-02  1.0877258214187124e-02  1.0944180299450750e-02  1.0972145844123482e-02  1.1049009922557166e-02  1.0507096287463645e-02  9.9354806872518315e-05  2.4955738810110808e-04  1.4728821154038285e-02  1.5288048775105687e-03  1.3742990461823588e-03  1.3731588719510682e-03  4.7048241755214474e-05  8.1539424065383715e-03  7.7715667287592671e-03  4.7106935109487783e-03  5.0022227758681074e-03  5.1044810651162155e-03  7.0311028381536906e-05  5.9523561111876282e-05  8.1619364105868779e-05  6.8987948920034653e-05  2.1752875195497047e-04  1.0220393764764336e-02  1.7517595963924493e-04  1.4488320237472475e-02  9.9626236003001831e-03  9.7329114424570696e-03  9.9888399616498789e-03  3.6233120194597212e-05  3.8830210288077810e-05  3.6094279913285832e-05  8.3584734931925009e-04  9.1638682641650157e-04  7.6694257049044986e-04  1.1386335199254751e-02  1.1385109892286215e-02  1.1333336063030124e-02  1.1477749559893253e-03  9.1136160183859737e-05  1.1218052995622199e-04  8.8733356473414608e-05  1.4258588616907161e-03  1.4138868958975636e-03  1.2666750619358517e-03  6.1675009091457576e-05  7.6721265515523521e-05  5.9891729035772133e-05  1.0015007227614284e-02  9.8706923542530838e-03  9.9675594427125133e-03  1.1351708684656072e-02  1.1428839695580452e-02  1.1389478415422923e-02  4.0887809458133948e-03  4.0286714514984594e-03  4.3013277739578507e-03  8.0505389269427165e-03  8.1972792230889536e-03  8.6909525791247361e-03  8.2948009494001433e-03  9.1337608899886725e-03  2.4770993362148951e-04  2.8499750958088378e-04  2.0178594281074279e-04  1.1335022973399595e-02  1.1412833986668224e-02  1.1402112168348463e-02  1.1592443431047600e-02  6.5796086364655599e-05  6.2992839553841713e-05  6.5166687135558040e-05  1.0510041884753782e-02  8.3886049970583127e-04  1.0823117102202375e-05  1.0545087261430032e-05  1.1035864555222086e-05  1.1028182984260289e-02  1.1675509293005941e-02  1.1700689686704738e-02  1.1814753597715421e-02  4.5432381279637423e-04  4.9322973214976473e-04  5.5410317712066190e-04  9.4507982826860775e-03  6.2617937163131779e-03  1.1885092884540281e-02  1.1958051098799022e-02  1.2042589955292535e-02  3.8162787567410998e-05  3.9933452125757723e-05  3.9797805086768585e-05  1.1023295205518447e-02  1.1074526992309571e-02  8.9499465947346141e-05  1.1969901658241404e-04  1.1689237931714264e-04  1.2911414017821699e-02  1.3633517543312393e-02  1.1415504235875404e-02  9.1820035371996088e-03  9.0045254553008831e-03  9.0884482295040536e-03  8.8170440728280886e-03  2.2522045948127807e-04  7.7774111425014144e-04  9.1108328353828858e-04  5.1262342245096846e-03  5.3214259254152222e-03  5.0513300937682429e-03  1.1904963326866472e-02  1.1988826539942658e-02  1.1785038800299069e-02  6.4466455409025041e-05  7.4100535373329055e-05  6.0705670530307842e-05  6.8861910030157169e-03  6.7199208109065926e-03  6.4714245023376029e-03  1.0129306375944674e-02  1.1761197132245433e-02  1.3018211156699218e-02  1.2960276879716523e-02  1.2971662877296525e-02  1.1407356058635949e-03  1.0196838303468615e-03  9.8324414285966191e-04  1.1474539253510753e-02  1.1401793837631836e-02  9.5907752676540042e-04  1.0760991333746063e-03  1.1054841316450962e-02  1.1084636438152403e-02  1.1044070516328554e-02  1.6517161973012518e-03  1.5656033230328191e-03  1.4855194174844789e-03  1.0534913420532166e-02  1.0482198579392086e-02  1.5401878630439238e-04  1.4527784024057067e-04  1.4432938915162914e-04  1.0588496189202679e-02  1.0764090273904183e-02  1.0668339841304617e-02  1.0947709008780039e-02  1.0919310595029394e-02  1.0979766007911267e-02  6.4830018539785295e-05  5.3053379044109612e-05  7.1702184986473737e-04  8.6995234997317610e-04  8.0222362945568258e-04  5.9560500863833975e-05  5.1395566449434333e-05  7.5729839895527143e-05  7.5819956013428360e-03  8.7252888347340071e-03  8.8936717891735136e-03  8.7846470239961935e-03  1.5892113527088013e-03  1.0414445877546035e-02  9.7645595253026511e-03  1.0012658786386781e-02  1.1150763165248905e-04  1.4800686655864123e-04  1.2689561501336261e-04  1.3742890331486118e-03  9.2931829045145246e-05  2.1181261134969781e-05  1.1515317047287993e-04  8.9437670469711479e-05  1.0718832214696360e-04  7.1322259133424780e-05  6.3324876991436373e-05  9.0054923830264663e-05  6.8625293235951513e-05  7.3198908992030083e-05  1.2351004424586572e-03  6.5007770679675414e-04  8.3040489105762447e-04  1.7014773940734058e-04  1.2500706087276842e-04  1.8189207511442419e-04  1.0974555627139219e-02  1.0743092802875102e-02  6.6387032463518820e-04  9.4216151543288730e-04  8.3774790425822831e-04  4.6554313169492132e-03  3.9697395875680549e-03  4.1943972423324405e-03  1.1522728671650648e-02  1.1503394956738435e-02  1.1403636944062942e-02  1.1001823880910949e-02  1.1135072371196094e-02  1.1125350168117122e-02  1.5071943866973917e-03  5.6898670149351299e-03  1.0556588520338678e-03  1.0764014839696760e-03  1.2109281392207699e-03  1.2398968789603296e-02  1.2238373926137929e-02  1.2243209474258580e-02  1.1350268271968108e-04  1.0113159722403316e-04  9.8428993861473832e-05  1.7301435586364964e-03  1.2124004817554898e-02  2.1748609582401216e-04  1.1993924134254451e-02  1.1937618204691114e-02  1.2014275718486768e-02  2.7901122986070026e-04  4.2438600834046359e-04  3.6163998873882695e-04  1.2120014946879622e-02  1.2020415894020465e-02  1.2038292639716324e-02  1.1348393480660477e-02  1.0997721342335441e-02  2.4451636615460063e-04  2.7673722348757392e-04  2.9323513921261369e-04  1.0164979853635833e-02  1.0303722992106802e-02  1.0390129888898536e-02  6.8116276707528324e-03  6.5782313615843635e-03  6.6550483080428380e-03  1.1257829555282324e-02  4.5453294891744768e-03  5.4344175475001873e-05  4.9729267991268606e-05  5.1401256851109952e-05  1.2532046275874427e-04  1.3500457010354782e-04  1.4976159382796276e-04  1.0330385475906541e-02  1.0179916410337133e-02  1.0195611655391054e-02  5.6835909938734485e-03  1.5458571474843248e-04  4.3920741212164442e-03  1.1456993856975326e-02  1.1455012526791914e-02  1.1338366702062418e-02  4.0491982988139826e-03  1.0982363047410085e-02  1.1040071313252948e-02  1.1003892436573176e-02  1.1244272469567388e-04  1.2464655302448207e-04  1.3943335841623664e-04  8.3916450541528798e-03  8.4995427736647613e-03  1.2436825690810742e-03  3.0786701494883995e-03  2.9036867768897582e-03  1.6835015484595165e-04  1.0748321293979719e-02  1.0570667649523070e-02  6.4955726943935850e-03  6.0161657716826886e-03  6.6252735845369086e-03  2.4100671552939518e-05  2.7429673590160989e-05  2.0829485130786905e-05  1.1063147265193122e-02  1.8207930152684463e-05  9.1841630047526449e-03  1.2250306456973488e-04  1.3482469350476660e-04  1.1421564527853376e-04  9.8866682793480390e-03  9.8928011066433483e-03  1.0051750282088885e-02  8.7362207138038297e-03  8.4245733268822481e-03  8.5695294272116578e-03  1.1928617828391190e-02  1.2322572386071044e-02  1.2014509873686317e-02  1.2220264323594510e-02  1.0617803737086087e-02  8.1682075021040131e-03  8.3001166787639424e-03  8.1070686064447540e-03  5.4529400533150096e-05  4.9368040944670369e-05  4.1202751780419251e-05  1.2703779933941707e-02  1.2718011275844772e-02  1.2838458578360497e-02  1.2488630933514992e-02  8.3510851030544359e-03  3.8145326281592154e-03  2.1174769091417155e-03  8.2291329701328873e-04  7.2750734584911222e-04  8.9226758245206247e-04  7.2052964495995700e-04  6.5138854948102484e-04  6.0069453698821890e-04  4.0679042731784163e-05  1.8677639990782239e-04  1.8439645656255713e-04  1.6695628881157896e-04  1.1145344834026918e-02  1.1082217621752358e-02  1.1079273391161363e-02  3.2500426904123628e-04  1.5042886194584424e-04  1.5915578667137682e-04  1.3466839089863381e-04  1.1509129965887844e-02  9.8211543415505833e-03  9.7632070495619113e-03  9.6394421965425598e-03  8.1589709177574549e-03  8.3757720166181583e-03  7.8326578673550418e-03  2.7626413175597014e-04  2.3710115798211050e-04  3.1450531236471170e-04  1.2904525207786012e-02  1.1080268351911365e-02  1.1024411734918124e-02  4.7144643270146998e-03  1.0477089487393293e-02  4.9684079573965865e-04  2.9254929737818292e-04  3.2200171311677281e-04  8.0205176336406838e-04  2.2173288752198563e