<?xml version="1.0"?>
<VTKFile type="UnstructuredGrid"  version="0.1"  >
<UnstructuredGrid>
<Piece  NumberOfPoints="7876" NumberOfCells="15418">
<Points>
<DataArray  type="Float64"  NumberOfComponents="3"  format="ascii">0.4249163915692647 0.01631841845330215 0  0.4191401984187901 0.02506912326907745 0  0.4289726413756784 0.02612113468352234 0  0.2767857142851263 0 0  0.2857142857137213 0 0  0.2812248065388995 0.01038713515471629 0  0.2967416581061778 0.01586295423198182 0  0.3064949907319527 0.01146398069210909 0  0.3067328811979874 0.02020700170352196 0  0.4107142857140506 0 0  0.4158019546614985 0.01016411496813172 0  0.4057527942907854 0.009131608077795703 0  0.4196428571426455 0 0  0.4553405836246289 0.01922319952462705 0  0.4502185492061667 0.009048838576603154 0  0.4477073454460922 0.01802506369374225 0  0.4605954067271555 0.009479653905184819 0  0.408405027027524 0.01879365359558598 0  0.3327471483778357 0.0116169966389358 0  0.3411241715572504 0.008869738053334202 0  0.3373462348395153 0.02016803949949268 0  0.3449193622080142 0.01675939042031124 0  0.4560666881261162 0.03472713690621396 0  0.4569587136330783 0.04407065178190893 0  0.4645781729481331 0.03500647048889689 0  0.2904696492978588 0.008492270780567407 0  0.2720303507010008 0.008492270780552839 0  0.4838057761916891 0.01622211176217807 0  0.4891090527860916 0.02607095670293257 0  0.4795070208502278 0.02491741008730116 0  0.4211559635346557 0.03243305996231127 0  0.4173837681617427 0.01810252336731936 0  0.3660714285710758 0 0  0.3749999999996708 0 0  0.3705680309420432 0.008201070915841512 0  0.3965571177416637 0.01294782644931313 0  0.3992606773450048 0.02237662197021784 0  0.3902814058312629 0.01811759008946148 0  0.4285714285712405 0 0  0.4374999999998354 0 0  0.4334237600940167 0.009048611384771411 0  0.4927506564360022 0.01903999749114713 0  0.3839285714282657 0 0  0.3890635451104001 0.008240259980012892 0  0.3784196719804126 0.007481561376362831 0  0.5 0.01666666666663358 0  0.5 0.02499999999994162 0  0.4061453336374634 0.02935988719507548 0  0.348214285713886 0 0  0.3502294097567256 0.009878282563881815 0  0.3151800619601543 0.01577240943901992 0  0.3147970056337792 0.007167663975001442 0  0.4420347072790085 0.01336505252911134 0  0.4023625044156623 0.01617529801156756 0  0.4553571428570253 0 0  0.4642857142856202 0 0  0.4243709028119588 0.00727809114851148 0  0.339285714285291 0 0  0.4347701887808393 0.01827839080428576 0  0.4690441985935219 0.01369774138246527 0  0.4640479097518392 0.01898294713710774 0  0.4017857142854556 0 0  0.4764853757018662 0.01540483407615287 0  0.2995052226020027 0.006894767932474348 0  0.4900341868388961 0.009951128878779391 0  0.4840982638409085 0.006610041318770014 0  0.4729205872125939 0.02105941703877819 0  0.4732142857142151 0 0  0.4821428571428101 0 0  0.4775649102044346 0.008808120446456702 0  0.4125742734033346 0.02453769300732587 0  0.3833804528072166 0.01410165736595959 0  0.4385651146460528 0.0262691371443281 0  0.4479564019985485 0.02597444175282206 0  0.4418851568713737 0.02028872896899281 0  0.3214285714281011 0 0  0.3234529884967683 0.00981963478795464 0  0.441964285714133 0.00593177226273425 0  0.4545479790973798 0.02817736542779369 0  0.2946428571423163 0 0  0.2678571428565314 0 0  0.4687499999999168 0.006124543461934053 0  0.471051587301668 0.02916666666659636 0  0.4617881241986502 0.02696257176711717 0  0.3630195836433963 0.007314498443048009 0  0.3564355390309227 0.006586318444912457 0  0.4910714285714051 0 0  0.4434801203186426 0.03303318745330348 0  0.4464285714284303 0 0  0.3584266541327418 0.0137736503568923 0  0.353189797837348 0.02212837720969356 0  0.3622128364641971 0.02008188204889313 0  0.4950377542550979 0.00588984251567878 0  0.3571428571424809 0 0  0.3928571428568606 0 0  0.3756592117346809 0.01579685420922956 0  0.3661560270816275 0.01439607657884632 0  0.3124999999995061 0 0  0.4487581541241857 0.0401831692739316 0  0.3973214285711587 0.005726850543111202 0  0.4673699675652473 0.02404886747925368 0  0.3285511308344141 0.005598970213513247 0  0.3463168014750809 0.02366118255935359 0  0.3839988775683789 0.02112425438657994 0  0.3080357142852087 0.00468823177294991 0  0.2589285714279365 0 0  0.2631212781840686 0.007015406202879499 0  0.2544642857136414 0.004688231772951413 0  0.3035714285709112 0 0  0.3520041036871805 0.01556653824567161 0  0.330357142856696 0 0  0.449766933244412 0.03317884135793415 0  0.5 0 0  0.5 0.008333333333318314 0  0.3348214285709941 0.005424041358853929 0  0.4956127664449431 0.01249999999997595 0  0.2499999999993469 0 0  0.4135799531945678 0.03123450343901587 0  -0.3483934010538861 -0.08484572601162338 0  -0.3405461382146081 -0.08898624933820695 0  -0.3417924481853969 -0.07763657082743236 0  -0.3332476784868302 -0.0824270883713619 0  0.2567996470856309 -0.04922294709707099 0  0.2615747937984864 -0.03911046160981974 0  0.2521376976682361 -0.03841363604630693 0  0.054637677942483 -0.03729742734360458 0  0.05436260035962338 -0.02692271934564467 0  0.04463661516738563 -0.03088038922788267 0  0.3497788201090177 -0.05634354453637726 0  0.3595641271282136 -0.06032201280660569 0  0.352758530291081 -0.04973044372830221 0  0.2098214285708826 -0.0680245535714446 0  0.2080523097187477 -0.05736430134349749 0  0.2161944847954839 -0.05987720177343991 0  0.1562499999996104 -0.06802455357141236 0  0.1543621473378817 -0.05739769449168096 0  0.1626230562241844 -0.05987720177335167 0  0.1026785714283378 -0.06802455357138024 0  0.1009600666742392 -0.05725623391842437 0  0.1090516276528846 -0.05987720177326381 0  0.4250739134779294 -0.01636611546687173 0  0.4191401984187901 -0.02506912326907798 0  0.4289270730935473 -0.02616651097703634 0  0.3574929684756453 -0.08467052881401364 0  0.3495971130782787 -0.08894027855982083 0  0.3507649617023171 -0.0776545533923816 0  0.3421807533182299 -0.08242007174338836 0  -0.364195375281696 -0.07752661409515869 0  -0.3552158943569041 -0.07149093121919207 0  -0.3655234992416128 -0.06847466993218951 0  -0.3591668701667492 -0.06189478595243662 0  0.3606373524606276 -0.04978041428638336 0  -0.473214285714215 -9.4642857142843e-05 0  -0.4730227666837037 -0.01241000086364194 0  -0.480692751114715 -0.008686261694240785 0  -0.4642857142858134 -0.1 0  -0.4553571428572668 -0.1 0  -0.4593080882769673 -0.08996412173209711 0  -0.3797967819136183 -0.03738578705998116 0  -0.3681385240082739 -0.03862549181661451 0  -0.374695033849047 -0.02970785394378747 0  -0.05591153824889453 -0.0431906731188556 0  -0.05422620724093098 -0.03277576327902337 0  -0.06160704916669536 -0.0388666810947436 0  -0.3579290388552167 -0.03299711024421233 0  -0.3511587618288846 -0.03824584623932025 0  -0.3606178853656651 -0.0434495760022929 0  0.4464285714284227 -0.1 0  0.4517272929894228 -0.09131108300269909 0  0.441795309698206 -0.09351775874475561 0  -0.4487665655930046 -0.09062285871250526 0  0.4153231600403321 -0.03852724033262692 0  0.4093518174702223 -0.04653635014989516 0  0.4197302084077636 -0.0464972320878496 0  0.4155289380633008 -0.05459564888258193 0  -0.4091577341291897 -0.04099683595035052 0  -0.4126521431981424 -0.03063377637212985 0  -0.4026438309666618 -0.03566243898822315 0  -0.4684529737123475 -0.0933353029288663 0  0.0401785714284937 -0.03755580357136472 0  0.03402273666112312 -0.04588586420804546 0  0.03367296756169912 -0.03439832178484198 0  0.02946687579216508 -0.01596454978282951 0  0.03653571784904612 -0.02621357404028583 0  0.02606393101750729 -0.02680570898637964 0  0.02800076339752448 -0.04174385571828064 0  0.3521193950230455 -0.03165426445696349 0  0.3628415969967344 -0.02852520913904793 0  0.3531897978373481 -0.02212837720969365 0  0.5 -0.05000000000013693 0  0.4907947530291201 -0.0549261069648472 0  0.4947973826236248 -0.04603862612194198 0  -0.3006722516187019 -0.01763568561538729 0  -0.2987376612926834 -0.02625002330196932 0  -0.3077826827580848 -0.02574396878768244 0  -0.2471007355957109 -0.01762580385668408 0  -0.2451656855339359 -0.02624012756662907 0  -0.2542111585689936 -0.02573446572526089 0  -0.5 -0.05004999999986921 0  -0.4908161726402718 -0.05498570446636991 0  -0.4948001849464224 -0.04609864193470255 0  -0.4062466983123816 -0.0801823047824705 0  -0.4062015502484813 -0.06902352409926871 0  -0.4142619626950597 -0.07529486785913148 0  0.1993236104610122 -0.01757992825654926 0  0.2087527001113953 -0.01194673649748713 0  0.2086600875385965 -0.02179686059487411 0  0.2169125529780965 -0.01634093584027977 0  0.2812248065388995 -0.01038713515471634 0  -0.4537190309657517 -0.08069916752350936 0  0.1999433502546125 -0.07176318975065654 0  0.2075215913721811 -0.07749416617642088 0  0.1991921019977064 -0.08220157690947469 0  0.1463831089483894 -0.07174801047192089 0  0.1539514058302373 -0.07749247958987113 0  0.1456206734262603 -0.08220157690941128 0  -0.02220274940448204 -0.06751853199984598 0  -0.02522095404736771 -0.05634662002562152 0  -0.01611062711846687 -0.06028200653926674 0  0.2154315471628965 -0.05034722629242176 0  0.1625097416023082 -0.05030053833398988 0  0.1088055397687599 -0.05019100084701821 0  -0.4115423321035901 -0.08894416401770638 0  -0.401870214704991 -0.08982956529416655 0  -0.03294867798709752 -0.08220150445113555 0  -0.03221079889245967 -0.07171388574531948 0  -0.02415540196000217 -0.07745590803929434 0  -0.07651285144902761 -0.06761971677900167 0  -0.07261883747956149 -0.05716845246006973 0  -0.08209526422726057 -0.06029072500126204 0  -0.1301205554983779 -0.06754392764342201 0  -0.1262620718338697 -0.05711499167084012 0  -0.135668196533485 -0.0602966183959122 0  -0.1836929038960597 -0.06754630470732817 0  -0.1798364674641391 -0.05711851802389931 0  -0.1892411276447344 -0.0603025105862229 0  0.2011705100050896 -0.0272703567581236 0  0.1918651567922782 -0.02564729523777646 0  -0.3446955213474959 -0.06807979676882227 0  -0.3469144232955963 -0.05717567977018093 0  -0.3379050527161465 -0.05957052617368713 0  0.4301549400407204 -0.04942233138157544 0  0.4323008626877973 -0.04083405609921663 0  0.4239200288990855 -0.0400865251194
[...]
<PointData  Scalars="f_26"> 
<DataArray  type="Float64"  Name="f_26"  format="ascii">1.2309485240631609e-02  1.2488787660782163e-02  1.2266895058012872e-02  1.4116688041155775e-02  1.4058907780889873e-02  1.4096609024267350e-02  1.4009871380887920e-02  1.3925341488591099e-02  1.3959654766205486e-02  1.2575286844504634e-02  1.2492830403497409e-02  1.2699476583499150e-02  1.2379067863414436e-02  1.1509554259104736e-02  1.1605924090803929e-02  1.1723806576898480e-02  1.1296975466343142e-02  1.2683932764602291e-02  1.3713119472599891e-02  1.3626788946475857e-02  1.3700962320320585e-02  1.3612348388170093e-02  1.1602767117508369e-02  1.1664263362471512e-02  1.1356359437804100e-02  1.4030788879547011e-02  1.4155249533472223e-02  1.0653311318133867e-02  1.0611065327609184e-02  1.0832524238134220e-02  1.2493036830496511e-02  1.2491155764049376e-02  1.3331170944493860e-02  1.3208642197338307e-02  1.3281536127975297e-02  1.2886435874689940e-02  1.2879786086821537e-02  1.3016162388225333e-02  1.2163641401474265e-02  1.1932943771189206e-02  1.2068051528727086e-02  1.0485928348005526e-02  1.3072148176536682e-02  1.3002515119516271e-02  1.3168704022206136e-02  1.0412215030633340e-02  1.0475636024100973e-02  1.2788541102694184e-02  1.3543633062818717e-02  1.3535631815696531e-02  1.3873482886787743e-02  1.3853284028935592e-02  1.1858474103247522e-02  1.2791319482055741e-02  1.1418965241922737e-02  1.1145720222631546e-02  1.2286473401444280e-02  1.3635852605199806e-02  1.2075750347743251e-02  1.1061115945663110e-02  1.1246093240686263e-02  1.2756349563713434e-02  1.0850049564522344e-02  1.3965623800705707e-02  1.0477181324967347e-02  1.0592388586276758e-02  1.0993097968723871e-02  1.0870314070400604e-02  1.0615567539732453e-02  1.0779924051581700e-02  1.2628150139223459e-02  1.3111942572460187e-02  1.2025125498611134e-02  1.1768014106039486e-02  1.1898321976245921e-02  1.3795335906303479e-02  1.3787704687427250e-02  1.1828609430662888e-02  1.1595306514134214e-02  1.3998640712681224e-02  1.4178139098016143e-02  1.1031470279525404e-02  1.1111584591624533e-02  1.1372169723990386e-02  1.3379012319025078e-02  1.3458132937046155e-02  1.0406847218520164e-02  1.1942328356469308e-02  1.1683154429203596e-02  1.3452671013958821e-02  1.3546770360775938e-02  1.3431489701726704e-02  1.0378106716549934e-02  1.3442563951460670e-02  1.2922922946059474e-02  1.3233540616094013e-02  1.3358615763725329e-02  1.3868175511362366e-02  1.1858825692376791e-02  1.2851739101753528e-02  1.1181428006512719e-02  1.3738152195664655e-02  1.3629767635451130e-02  1.3132443597778109e-02  1.3902284909972484e-02  1.4247298625190625e-02  1.4215930032479797e-02  1.4282373890830457e-02  1.3934698242890880e-02  1.3532798674230739e-02  1.3720017370234228e-02  1.1770242166092815e-02  1.0313611043739597e-02  1.0361263309555419e-02  1.3681722668045499e-02  1.0409849135074771e-02  1.4321658048417157e-02  1.2650465296142575e-02  3.3867653007416286e-03  2.5548305340156591e-03  5.3367753516121389e-03  3.9581525383055351e-03  1.4866705710794150e-02  1.4612951080916300e-02  1.4704670804537211e-02  4.2981088367230490e-02  4.6807081790102123e-02  5.6076816027471388e-02  1.3880533021451532e-02  1.3781980477328110e-02  1.3763293269589662e-02  1.6351037153458352e-02  1.6035079216899097e-02  1.5902906610850680e-02  1.8794791661353998e-02  1.8444180920483576e-02  1.8031201295208306e-02  2.4409879306159895e-02  2.4555009732366045e-02  2.3305040062653125e-02  1.2238439972623551e-02  1.2394670993883085e-02  1.2153815783764265e-02  1.4151125362393374e-02  1.4356689474479557e-02  1.4156987937129896e-02  1.4371283364763322e-02  5.4392802003489886e-03  8.1156952777195410e-03  9.9432846261478646e-03  1.5451580149083958e-02  1.3650491657684127e-02  1.0000000000000000e+00  4.3070201879029696e-01  5.6110344132685042e-01  1.2022373623313441e-03  1.2017836199250589e-03  2.3325444599580254e-03  7.9860784273566937e-02  7.4005821547303868e-02  1.3468769197562477e-01  5.6428572532345241e-02  1.1131723906697263e-01  7.5023629711914883e-02  1.0883260324673998e-01  7.5280504748046040e-02  5.3323135944125612e-02  1.2186310582707806e-02  1.1917893590925701e-02  1.2255446769518102e-02  2.2398906470481317e-03  1.2534111763382174e-02  1.2716302780165252e-02  1.2469282588042774e-02  1.2623829585766631e-02  6.2720025002765217e-02  1.2603692809234568e-01  9.1354152815355597e-02  1.8945428321107348e-03  5.5931433077937499e-02  5.2825702481949670e-02  6.7159127013677100e-02  1.1444063016882494e-01  7.3751748771559558e-02  9.8902041125067786e-02  6.3073140469837849e-02  1.3611634991191553e-02  1.3450726556538227e-02  1.3541690810715675e-02  1.0335590639428337e-02  1.0456127399564041e-02  1.0358853349368083e-02  3.0134705850967969e-01  1.7075290005239574e-01  1.7740645906277538e-01  3.0148212869716950e-01  1.7089869268971131e-01  1.7757166872329738e-01  3.4728193360250903e-02  2.4424341798254971e-02  4.5384346848945240e-02  4.4522883271829903e-03  9.4596694031090413e-03  6.2957207004409686e-03  1.5170704441455065e-02  1.4904834042523483e-02  1.5050008268347310e-02  1.4816989739432023e-02  1.4118901885136082e-02  4.3150956487936452e-03  1.6804287729760923e-02  1.6756956256498468e-02  1.7215544008841985e-02  1.9669230863392225e-02  1.9340703824038276e-02  2.0122886152693791e-02  2.3650483713626186e-02  3.4084202309180689e-02  3.2619156065935344e-02  1.5620818330388539e-02  1.7605706625111826e-02  2.2994227412667646e-02  2.5418327166694178e-03  2.3830850326054943e-03  1.3818572845652610e-02  1.7881979147687362e-02  1.8004416900416459e-02  1.2058471180614830e-02  2.2699123258919235e-02  1.8189496614769610e-02  1.0636300115662956e-02  2.1493674270572243e-02  1.7288317993621318e-02  1.0541802154681186e-02  2.1447450367662116e-02  1.7236228476398163e-02  1.5323205369511024e-02  1.5522729101091686e-02  1.0125245605664282e-02  2.1188978809998659e-02  1.7976797117435019e-02  1.2213965149001058e-02  1.2110735693496714e-02  1.2328789433611395e-02  8.4526911926995157e-02  1.4037479520851312e-02  1.3941737047656390e-02  1.3988860422703874e-02  8.6021894058381412e-02  8.0512048671157535e-02  5.3876041818045520e-02  8.5975163797610055e-02  8.0455379911588992e-02  5.3829815316755562e-02  1.4951951731415607e-02  2.7309180037529003e-02  2.6369549225242248e-02  2.7841409042104928e-02  2.5780958806405818e-01  2.2961528281875720e-01  3.5495302870460543e-02  1.8526988916040078e-02  3.1471594886220533e-02  1.7331412399378222e-02  6.3138602752439529e-02  1.0265493023719171e-02  1.0403055049387822e-02  1.0337492311396565e-02  1.8489373803180170e-01  1.8709003291204951e-01  3.0092626974525821e-01  1.3714223701769791e-02  7.1060089124579829e-03  1.1820377277060827e-01  7.6519948634621665e-02  1.1827803276209800e-01  7.6637159220493245e-02  1.0513234585387854e-02  1.0462784961348092e-02  1.0346343685716988e-02  1.4351776729138368e-02  1.4184872848422028e-02  1.4337274911061224e-02  1.4206354685933014e-02  1.3716863732078002e-02  1.3746029925426794e-02  8.3737133647130577e-02  4.6282105081662077e-02  7.5348534962834335e-02  1.2457023221038378e-02  1.2672631164942020e-02  1.0504252335896214e-02  1.0616435851777338e-02  1.0506993631275665e-02  6.4947613813558869e-03  4.2812487561187497e-03  8.5355842439041145e-03  1.2200050549777429e-01  1.2199868788239158e-01  1.2532507584234979e-03  1.2694436996910270e-03  2.2367187184780730e-03  1.4431655042200306e-02  1.4561103676833073e-02  2.0185810943806272e-03  1.3186175541107551e-02  1.3118080966353135e-02  1.3016913269413054e-02  5.4698300236700102e-02  6.8129266965828730e-02  1.0110910855586357e-01  1.4345138313929820e-01  2.3100208487898802e-02  2.3663994698498815e-02  1.2846056394526673e-02  1.3318463557377242e-02  1.3211643841145352e-02  1.3211717154417962e-02  2.3127187440004297e-02  2.3894932592458857e-02  2.4159551629283502e-02  2.4980891486153494e-02  4.8274495124364554e-02  1.4268990146138055e-02  1.4376881867029179e-02  1.4291797032522409e-02  1.0382718953242522e-02  1.9747379253116308e-02  1.1389051818366044e-02  1.1554231672830149e-02  1.1627020996083728e-02  1.4205676691267113e-02  2.6044576012436319e-02  8.5045567816443443e-02  5.8771594181770921e-02  3.0370258349321427e-01  1.7953660130008806e-01  1.8013545604330033e-01  1.1277421901307184e-02  1.6078098988032374e-01  1.5814501532943431e-02  1.5841725287109951e-02  1.5529923162725568e-02  1.5116524526908081e-02  1.5095596430940826e-02  1.4882729468068194e-02  1.4856166553305851e-02  1.5565231027893388e-02  1.2984366481719228e-02  3.8507531044473207e-02  3.2258049667067662e-02  3.9003521746910803e-02  2.8791413755733813e-01  2.8807611959833351e-01  1.5422198296937945e-02  2.9278193969165761e-01  1.5790942528245578e-02  1.5631493613208189e-02  1.5458795020873125e-02  5.0217298651330615e-02  4.7362714855827985e-02  3.5165138714109846e-02  3.3910912062682659e-02  3.4609342445264375e-02  3.3051847780988922e-02  3.4659018075543814e-02  3.3047404051218747e-02  3.4585652828750903e-02  1.7890133312468297e-02  3.5437280150205711e-02  3.4529327246507799e-02  1.7878529382504071e-02  3.5373254869266846e-02  1.4410479229752020e-02  1.4283226692679634e-02  1.4476104888787093e-02  3.4543047827649567e-02  3.2829313995988547e-02  1.4967141273369917e-02  1.4723056827267862e-02  1.4740016338271381e-02  2.5158046801067840e-02  1.1868931305507002e-01  1.1900077931156963e-02  1.1236637551311759e-02  2.9268009404480669e-03  4.3177008921679652e-03  5.4304165926128559e-03  1.2912363633792132e-01  1.3631238405737276e-02  1.0626362535782499e-02  2.2813709178015073e-02  3.2381200868365223e-01  1.5935787217033187e-01  2.7122755955187428e-01  2.2759660617887759e-02  6.8972600470769488e-03  1.1556925537109125e-02  1.1257632872668377e-02  1.1255874081044804e-02  3.6147892823728524e-02  7.4596560477377697e-03  1.4320966836769958e-02  6.7941543191401589e-03  9.2949965560053267e-03  1.0000000000000000e+00  5.2059600161857167e-01  7.1391528051941389e-01  1.3746128895714244e-02  1.3933549305039337e-02  1.3724874885242105e-02  1.3238096801505412e-02  1.5209963542854256e-02  1.4973667667481762e-02  1.5209528690116133e-02  1.5041007375361883e-02  4.1643957167856661e-02  2.2061025239008561e-02  3.4071036030201493e-02  1.2622321401235009e-02  4.1687654187447326e-02  2.2006818556617364e-02  1.8912106965499559e-01  3.0992059175702780e-01  1.1598051006316486e-01  1.6735330965638184e-01  5.0235669227593552e-02  3.1208475090013822e-02  1.3861110541967137e-02  1.3989267360965996e-02  1.1081676271584687e-02  1.1390583664387353e-02  1.1123393935976514e-02  1.4699591970055209e-02  1.4604891098715812e-02  1.4835116753528567e-02  1.4765377040829990e-02  4.3018823394976320e-02  2.4173597438882144e-02  4.1711599388785187e-02  2.2560767356706986e-02  1.4709699638299562e-02  4.1669851715983836e-02  2.2486831830570604e-02  1.2504940856159611e-02  1.2689149647816311e-02  1.2818375908973603e-02  1.4362995295304833e-02  1.4244069936084253e-02  1.3720149820593731e-02  1.3628425382261569e-02  1.3709054552053583e-02  1.3613996434512629e-02  1.6546553587297164e-02  1.6149785246281727e-02  1.6599374252542560e-02  1.5824549469717859e-02  1.8130289551144221e-02  2.4585933890660418e-02  1.2114147812823205e-02  1.4348912283413248e-02  1.2955469933838660e-02  1.1388987957627199e-02  3.9539412261247006e-02  3.3064199696738428e-01  6.3152917175118040e-01  1.4497772301495532e-02  1.1502616360490339e-02  1.3096505203522436e-02  2.5696650258304556e-02  1.4501043692754350e-02  3.0339774382447404e-02  2.9842129006759765e-02  3.2466409698365971e-02  3.1794815349651416e-02  1.3946656795595810e-02  2.4372450350071701e-02  1.6421697279644053e-02  1.9124707147982967e-02  1.3973218589816348e-02  1.3881824602354110e-02  1.3770302577715512e-02  1.6072645443419839e-02  1.4139073954441523e-02  1.2785434585218669e-01  6.9156805003273439e-02  9.5707434476566849e-02  1.4035132249778998e-02  2.3359248167690506e-02  3.8646089495357507e-03  2.2239225119633141e-01  1.5345041809306431e-01  2.9871500282863123e-01  1.4434544184454400e-02  2.5575432237378370e-01  8.2867588394652442e-02  3.1651705823753112e-01  2.6665537159153541e-01  1.0642747648224921e-02  5.4641089050791646e-02  1.4046850672044532e-02  1.4175620129250239e-02  1.2222074685096596e-03  9.9999999999999989e-01  4.4993125385562061e-01  1.1663324283439216e-01  2.2206168600135454e-01  1.5383815272851942e-01  2.9878708040380153e-01  1.1625331406881870e-01  2.2189011679525436e-01  1.5364053706775188e-01  2.9865991671000092e-01  1.1618465363854708e-01  2.2177970836057398e-01  1.5353694076912583e-01  2.9860206077799895e-01  1.6909688205122307e-02  1.0270056652960016e-02  1.2057174005457054e-02  1.2716899655119844e-02  1.4065574168707446e-02  1.4156682892015422e-02  3.1688364883397952e-03  1.0530085622658666e-02  1.0643299413853126e-02  1.0820593816358954e-02  1.0849281614744634e-02  8.5112901567266558e-02  7.7748174463895106e-02  4.9004166898944643e-02  1.4091379800774543e-02  1.6387832029353528e-02  2.4220690699898476e-02  3.1444045618422831e-02  1.8642611310809701e-02  1.0756663683373411e-02  1.0919902716319431e-02  1.1012785644568396e-02  1.2380230207951497e-02  1.8029774204102225e-01  3.6202823953340058e-03  6.8055623752475685e-03  2.9259909633995065e-02  2.5753203708451290e-02  2.7485384146993839e-02  1.0000000000000000e+00  1.0000000000000000e+00  5.1282295190019389e-01  1.1703492177123864e-01  1.4710611779882966e-02  1.4643621975291432e-02  1.1038376935951237e-02  1.1035089735255554e-02  1.2425272367496396e-02  1.5839681665711627e-01  2.6879111433986164e-01  2.4090111756729279e-01  1.6717548427491907e-01  7.6683642423750462e-02  1.6729281730833534e-01  7.6740856909481930e-02  1.6832348435684519e-01  7.7644945012424027e-02  1.3345798100477634e-02  1.3246408860637594e-02  1.5539289866914297e-02  1.1231040462005262e-02  1.4088711853311096e-02  1.4231832110591874e-02  1.4101286341374614e-02  2.7747688249633987e-03  3.7107916076384063e-03  1.6982021982126897e-02  1.0904561275139557e-02  1.0804548104373712e-02  1.2688778158984010e-02  6.4674761835507881e-03  1.4954584696070273e-02  1.2261685084165967e-02  1.2215769714326358e-02  3.4373243190956582e-02  3.8413666689440282e-02  3.1104463620996878e-02  7.9321023844134420e-02  1.3273078981208624e-02  1.4851315710499139e-02  1.1360770728708906e-01  1.1347714239995735e-01  3.1525608646883467e-02  1.6609395946767688e-02  1.9458595469280245e-02  3.2055952858178520e-02  1.7144039439512492e-02  1.9913989548273451e-02  1.2441421913815941e-02  1.2179310823848469e-02  3.4288287017946610e-02  3.8763386016828966e-02  4.5307871274444404e-02  1.3890161684682264e-02  1.3955816834240539e-02  1.3843540136378936e-02  1.4195474562262249e-02  1.5156278213532829e-02  1.4978707843658271e-02  1.0000000000000000e+00  9.9999999999999989e-01  5.4530792738328715e-01  4.0730846408840874e-03  1.2855075100049618e-02  1.2822705437291443e-02  1.2979016202632976e-02  1.2077107841156492e-02  1.7976193150032564e-02  1.5376978296327776e-02  2.2270860819726675e-02  1.2499282721292707e-02  1.4165852112902663e-02  3.0727844951085055e-02  3.2065928514898055e-02  3.4294317543067422e-02  1.4998005606582630e-02  3.1559519596432752e-02  2.7572087019565057e-02  2.0256351309406923e-01  1.6417746281256965e-01  1.1542127574396643e-01  1.9745738838144768e-02  2.4115804745129081e-03  5.5572044670931187e-02  1.0022697083655906e-01  1.2918114787243334e-02  1.4080440410965117e-02  7.7109517804616348e-02  1.5779170647349433e-02  1.5507572450568325e-02  1.5389799290286681e-02  4.5643033853193965e-01  3.4258762540887014e-02  3.7725109403633446e-02  2.5490242426204862e-03  3.0540625275103806e-03  3.5538097939545690e-03  1.3626181202597461e-03  1.4187652756728810e-03  2.3456413058023495e-03  1.2533552397959024e-03  1.2405713109467763e-03  2.2500281652044368e-03  1.2895092965708214e-03  1.2788573961898179e-03  2.2828826836710520e-03  1.2920663779391896e-03  1.2942013953785266e-03  2.2836904212502735e-03  8.5463971256673939e-03  1.0403354644368720e-02  1.0405046316038497e-02  2.1351119557569905e-02  2.0722904307767818e-02  2.0889020082779378e-02  1.8267087176356386e-02  1.7906380568052299e-02  1.7788531069570245e-02  1.5289480034592479e-02  1.5069666617485683e-02  1.5230236318356806e-02  1.7942594425800151e-02  1.7244916922601244e-02  1.7678703338188315e-02  1.9909314272799083e-02  1.8807166097025933e-02  1.9411343773067212e-02  1.4883170514704858e-02  1.4729722574623308e-02  1.4639757469815494e-02  1.7016537067928977e-02  1.6769423187746001e-02  1.6610665973629823e-02  1.9115684523159350e-02  1.8671483594451182e-02  1.8616357105767898e-02  2.2735500895059806e-02  2.2017163705147304e-02  2.2403813545441548e-02  1.0000000000000002e+00  1.0000000000000000e+00  5.3472522610547513e-01  9.9999999999999989e-01  1.0000000000000000e+00  5.3464035096805829e-01  1.7152882687120570e-02  2.1165632628639956e-02  1.0541214717068719e-02  1.0000000000000000e+00  1.0000000000000000e+00  5.3451185967716486e-01  9.9999999999999989e-01  1.0000000000000000e+00  5.3763205325173047e-01  1.0000000000000000e+00  1.0000000000000000e+00  5.3531786370252044e-01  1.0000000000000000e+00  9.9999999999999978e-01  5.4270173334778626e-01  1.0000000000000000e+00  1.0000000000000000e+00  5.3870672670681974e-01  1.0000000000000002e+00  1.0000000000000000e+00  5.3522808253196241e-01  1.0000000000000000e+00  9.9999999999999989e-01  5.3862187227435032e-01  1.7080745564618881e-02  1.9374471897696310e-02  2.0222874742387636e-02  1.0000000000000000e+00  1.0000000000000002e+00  5.3373474726020631e-01  1.0000000000000000e+00  9.9999999999999989e-01  5.3368250402578110e-01  5.6356373031350342e-03  6.9568751059045442e-03  6.9946065071935116e-03  1.0000000000000000e+00  1.0000000000000002e+00  5.3632909598787926e-01  1.8852684506851221e-03  2.1804999491306441e-03  2.8627008220336058e-03  1.2690741070040870e-03  1.3155600724235298e-03  2.2747732688774632e-03  1.2591680755046704e-03  1.2579889379871264e-03  2.2543500082672125e-03  1.2913259973004216e-03  1.2911660997982838e-03  2.2783901046335630e-03  1.2898999081192191e-03  1.3003407548736340e-03  2.2541343017721096e-03  1.4256349124038710e-02  1.3713134161049556e-01  8.3942970523723709e-02  1.8211616067526443e-01  1.5189491295818152e-02  1.4926516282446144e-02  1.5015716107138304e-02  1.1249349510260362e-02  1.1079927232787209e-02  1.3612414269899764e-02  1.6648046072075807e-02  2.4082927475751595e-02  3.2137142536902613e-02  1.3076553797502775e-02  1.3343740334992629e-02  1.3172479608377878e-02  1.4070811429511739e-02  1.6748749193445305e-02  2.4220268128858965e-02  3.2213723822482297e-02  1.7704481284843473e-02  1.7146395959215965e-02  1.7104069724196896e-02  2.2192562029972988e-02  2.0977680959254372e-02  2.1235912180953206e-02  1.1130672358596323e-01  1.1113790292367173e-01  5.5217620461842372e-02  1.3238608368125135e-02  1.3420281853095288e-02  1.2721067287376136e-02  1.2631366465919384e-02  3.2852416999126929e-02  1.3444266568788337e-02  1.3217742434781698e-02  1.3179860227795775e-02  2.9212979858481963e-01  5.0664876120071756e-02  5.0741267743394636e-01  2.6835245666058749e-01  4.2022093726180060e-01  1.2028186521783514e-02  3.3000149628057682e-02  3.3744047923718712e-01  2.6016443459678601e-02  3.4733338546564511e-02  1.2494296143617835e-02  2.6958885649753517e-02  8.3909258752845467e-03  1.2720246852940655e-02  1.2112995603772267e-01  1.4154912386813930e-02  2.3154305774342181e-02  1.9010997022357609e-01  1.8478430183583028e-01  7.1320606080508375e-01  2.1472559380264558e-02  2.3245218293137932e-02  2.4751673576672927e-02  1.5073589189590633e-02  2.3151248913923925e-02  2.4951455301551111e-02  1.8965209712593190e-02  1.8118568572931832e-02  1.8038341759156380e-02  3.4465962558710789e-02  4.8563516441171094e-02  1.5457049992624457e-02  2.8802980192620103e-01  1.9033535506407026e-01  2.9472122746886142e-01  1.8606459787286408e-01  1.9024470344199704e-01  2.9461383050845974e-01  1.8591478387085511e-01  8.5159230941295960e-02  1.0301836281300768e-01  5.6570726632655048e-02  1.0655457445966597e-02  1.0660874456221400e-02  1.0000000000000000e+00  3.2915634164783672e-02  3.9764571188084262e