<?xml version="1.0"?>
<VTKFile type="UnstructuredGrid"  version="0.1"  >
<UnstructuredGrid>
<Piece  NumberOfPoints="7728" NumberOfCells="15128">
<Points>
<DataArray  type="Float64"  NumberOfComponents="3"  format="ascii">0.4301528014186955 0.4298797043935643 0  0.4293248134935059 0.4185586764506676 0  0.4214834124720171 0.4218324831403495 0  -0.08559264909810248 0.2184876237910115 0  -0.09523162420417441 0.2194437160028275 0  -0.08791185649983577 0.2091073943060879 0  -0.1465123035884944 0.432717119960178 0  -0.1371834592601369 0.424698075990399 0  -0.1385288937608097 0.4373976701603043 0  -0.5 0.4127566896324213 0  -0.5 0.4031812128200121 0  -0.4902994074073384 0.4074494795824961 0  0.09024613933824489 0.4781120739656126 0  0.0933155188518916 0.4895845157020997 0  0.0829774079100483 0.482288729167381 0  -0.1287167150007658 0.4338930560544612 0  -0.03994054255915485 0.1843739599920573 0  -0.03212149259489155 0.1760718970112855 0  -0.03198564666646322 0.1872563943297354 0  0.1506583986267356 0.2874403806624499 0  0.1612349119169872 0.2797164781725275 0  0.1526885773121235 0.2768775068452843 0  -0.3041933375414425 0.1552962787369889 0  -0.2958070052422007 0.160597789145515 0  -0.3063261001846426 0.1651229488266085 0  0.08364681739780096 0.4918389643252714 0  -0.4010738657800832 0.3107072169746339 0  -0.4031376899632865 0.3218902724669491 0  -0.3941869208863597 0.3191578499678918 0  -0.4824164333943274 0.3529424973048867 0  -0.4904591394543069 0.3605919582069659 0  -0.4787282960730884 0.3632812589732464 0  0.1621937559941708 0.2897084626288494 0  0.2200000000007767 0.5 0  0.2266770459673737 0.4891454605377314 0  0.2150000000007906 0.494070635928735 0  0.01132785076087824 0.2351265822100481 0  0.004025061924042422 0.2270398149852844 0  0.005334166261014847 0.2400744598531132 0  -0.1809699693600755 0.2351266288121367 0  -0.173667878605497 0.2270397067322088 0  -0.1749758876640578 0.2400736572588687 0  -0.04735416238385137 0.3084916580310646 0  -0.03958104525790275 0.3017109721815985 0  -0.04022031810808564 0.3127001313991637 0  -0.439331219421661 0.3766174521400052 0  -0.4302809024495696 0.3853349020424781 0  -0.4313681272434796 0.3726647714920578 0  -0.01254336186881605 0.3548147785220297 0  -0.001510041189534698 0.3520156633609962 0  -0.005477322840463117 0.3637660352473006 0  0.2906026827068128 0.2862785659764152 0  0.3019438881330127 0.2827926005078699 0  0.2952498681705479 0.275480309304373 0  0.2060892002931355 0.1690404904672964 0  0.2145887834930549 0.175077624252056 0  0.2045139796654503 0.1762110796515674 0  -0.4408001217766457 0.391028286200248 0  -0.4303915784012729 0.3959889621446451 0  0.0583972750586039 0.4132203121003322 0  0.05371171918015882 0.4039641502889484 0  0.05076859829744053 0.4145266969422832 0  -0.002003683238403816 0.2350264315399713 0  -0.298225204307873 0.171080096427281 0  -0.4859057911139843 0.3690968765276264 0  -0.1677198406702055 0.2350008664285762 0  -0.4245313652317673 0.2457897297396278 0  -0.4349627676518225 0.2495597222555704 0  -0.4264717645177953 0.2553275416054197 0  -0.07441820092927255 0.3437430193407162 0  -0.08523316222954795 0.3486935209070671 0  -0.07479864842347012 0.3521312061977401 0  0.2462109850665596 0.1417290005956053 0  0.2353922208483022 0.1372640293053277 0  0.2447393393579754 0.1343684741689244 0  0.126143890147936 0.4479298256245561 0  0.1330723166848467 0.4400180449370222 0  0.1220152276540013 0.4409271500149842 0  0.1759683609380617 0.3040836159903125 0  0.1859922824731085 0.3088330642455778 0  0.1755003264649886 0.3158335207574144 0  0.05503047726665449 0.1882285333120312 0  0.050052970836762 0.1790934328072465 0  0.04415367546269549 0.1834694162665104 0  -0.224673334411532 0.1882285333116649 0  -0.2196958279817065 0.1790934328069041 0  -0.2137965326077032 0.1834694162662072 0  -0.4771566242214346 0.2678067479529653 0  -0.4663223229417238 0.2714736992055615 0  -0.4753585172166018 0.2775946395024117 0  -0.3080357142862469 0.120088589247209 0  -0.3076616386178176 0.1303414909000259 0  -0.2994190930055523 0.1217218352670721 0  0.3700000000003606 0.5 0  0.3632258362414532 0.4901372357141994 0  0.374511143063552 0.4919670291702244 0  0.3721921806399926 0.3128134837372821 0  0.3834623560781545 0.3095932167030788 0  0.3772490052446142 0.3193807204532692 0  0.1375201342840787 0.2685160580029517 0  0.1312815534866872 0.2588224405859477 0  0.1417106244850543 0.2605964426603999 0  -0.1779711807868274 0.3965737881816591 0  -0.1728088211796831 0.4075388118969518 0  -0.1844939125695736 0.405422086108046 0  0.0380141700321618 0.1289763399652269 0  0.04027212952246088 0.1405769561884672 0  0.030997110651545 0.1377228012821126 0  0.1720143924696237 0.2880808468773411 0  0.1713428117112401 0.2967124323315568 0  -0.3419006693977408 0.4302415922263585 0  -0.3321022908240916 0.435291410928624 0  -0.3401752226292143 0.4401723469420832 0  0.4397694620430982 0.3500578817184244 0  0.4500550303837885 0.3504222172349927 0  0.4448065729780818 0.3408602469709414 0  0.09071916951411059 0.2971106492655552 0  0.07851527399279083 0.2981859373806167 0  0.08257262281262831 0.2886530030888572 0  0.1852963021610818 0.3177132986070278 0  -0.3772044495878739 0.4489102411091769 0  -0.3815819312659189 0.4588379539619521 0  -0.3724579371629195 0.4561084312058448 0  0.1709851269258648 0.1330181685335966 0  0.164577493084018 0.1256563390042854 0  0.1612009715464842 0.1334829469959427 0  -0.3766369793583356 0.3222566016949557 0  -0.3798475359811067 0.332733809155234 0  -0.3860972446368247 0.3237932660840142 0  -0.2122656284968389 0.3559209481510414 0  -0.2231390377576284 0.3520697848885052 0  -0.2166994866486932 0.3467150550299288 0  -0.2044084873617347 0.3731423582697778 0  -0.2151834419273531 0.368036346565584 0  -0.2112650907921009 0.3788430017631544 0  -0.3597733961336687 0.3840520005832508 0  -0.3645674422101735 0.3946943527768993 0  -0.3715903435286772 0.3851913851676531 0  -0.1396604493015806 0.1583480566930887 0  -0.1476898591425476 0.1534110385803823 0  -0.150748914431126 0.1632560903498436 0  0.2801779821035303 0.2337058656633353 0  0.2731028247806488 0.2411147198145403 0  0.2741862973430237 0.2297025072272037 0  -0.4653214619123232 0.2782375819458921 0  -0.1429809562578837 0.1680883865846629 0  0.03076523486684546 0.3398304516498473 0  0.02178021474204219 0.3476575260646912 0  0.03143653487241189 0.3502278421827749 0  -0.08928571428685395 0.1 0  -0.08035714285830731 0.1 0  -0.08276538418135869 0.1094829999223174 0  -0.08069302279494821 0.3566885450668409 0  -0.04535471151353108 0.3757680529374156 0  -0.03859770699626507 0.3853796912484584 0  -0.05055825188769141 0.3832542530770671 0  -0.09773272728425204 0.2094032520804052 0  -0.3755249277394466 0.395204975502496 0  -0.3818438337622291 0.1675479091046081 0  -0.3775298320303543 0.1573948891566206 0  -0.3714330686715698 0.1655280777467928 0  0.2611441333065299 0.2837434038641459 0  0.250389075822865 0.2844747710617656 0  0.2561769911976881 0.275239152219664 0  0.1400000000009986 0.5 0  0.1300000000010264 0.5 0  0.1349504119828615 0.490153774714903 0  0.1448159640040156 0.4121806247126251 0  0.1457144574024879 0.4240753373323932 0  0.1357860771841101 0.4162773248813054 0  -0.4225327081968155 0.2272117111835015 0  -0.4250360168849188 0.2362480192972036 0  -0.4325146555307054 0.2311871907861572 0  -0.002992699553798008 0.3405447382417915 0  -0.01452811117261945 0.343206320288175 0  -0.01182445829985416 0.3328008695468301 0  0.1273448950177487 0.2677134063181503 0  0.3415914478252483 0.4534929692314442 0  0.3537376573339029 0.4490242263450663 0  0.346141537813676 0.4421091341179351 0  0.0005198194491365062 0.123612605363961 0  -0.005194376127262185 0.131492584272441 0  0.004390696803407098 0.1304885273827742 0  -0.0848223841956393 0.2584291311739456 0  -0.09174751492901442 0.2489755555618796 0  -0.08470938645110004 0.2463537019950441 0  0.07602001733128075 0.2675157652518768 0  0.08611012667280619 0.2704197955518713 0  0.07673977553853591 0.278202029933495 0  -0.121992985972394 0.400748999238995 0  -0.1337095685129487 0.398136086434097 0  -0.1273237073641656 0.3911356136235424 0  0.3757926671360805 0.1557340965981443 0  0.3854304124289478 0.1526976661163702 0  0.3760399509945578 0.1480053341020623 0  -0.3699755295254641 0.4309022120114983 0  -0.3709419539169024 0.4404044179511574 0  -0.3795485569097365 0.4325538394313739 0  -0.02465511021035985 0.167503690332337 0  -0.03408009838530297 0.1597906272722227 0  -0.02212557985219664 0.1593500853083564 0  -0.1292441398206726 0.2689679585561044 0  -0.1327327765406075 0.2577804396442022 0  -0.1234173649494807 0.2580309397155822 0  -0.04859450025076664 0.3927060845745354 0  0.2366404325300897 0.1446292614903707 0  -0.2016815205812364 0.3623473964956916 0  -0.2024193027621807 0.350928465340433 0  0.1334854826555854 0.4262944628896248 0  -0.1280211915376581 0.1955220234751905 0  -0.1363148358358212 0.2046602976620198 0  -0.1350972707801067 0.1937109323622725 0  -0.2507887552267173 0.1768339856046225 0  -0.2527867650419344 0.1868715348518789 0  -0.2431592714029244 0.1809864432258096 0  0.4372814776475923 0.343389655813208 0  0.2293266361657646 0.3399562932097067 0  0.2320386238240533 0.329334299257138 0  0.2216597149270816 0.335613804937926 0  -0.3855967450785084 0.148867636996457 0  -0.3745895056076544 0.14917887153352 0  0.07472897263274798 0.3608304199238726 0  0.08186003242608114 0.3678333471925798 0  0.08069069017702166 0.3558084291272243 0  0.08742687919768305 0.2806619320217654 0  0.2346789143311082 0.2276953229562641 0  0.2296025551115074 0.2336164243803852 0  0.2265641621522574 0.222590889762379 0  0.2379675577345038 0.4330121119995557 0  0.247875479721261 0.4374555008681802 0  0.2351491730493422 0.4414619415468398 0  -0.2434391441115647 0.1652180752555862 0  -0.2326190756943587 0.1662516752342565 0  -0.2418052846736646 0.1734912016800042 0  0.07272758104574213 0.1661064342774871 0  0.06291104200820101 0.1663038564678387 0  0.07216242752883364 0.1734912016802553 0  0.1926545143398746 0.218763
[...]
<PointData  Scalars="f_26"> 
<DataArray  type="Float64"  Name="f_26"  format="ascii">7.4504486338340615e-04  7.4164199621764898e-04  7.3752448697155003e-04  1.9997098456772504e-04  1.7360064158383968e-04  1.9350644304589289e-04  1.0756218537623411e-04  1.1862315226404895e-04  1.1767375993635162e-04  1.6147469222272798e-05  1.5952915236060387e-05  1.5377780674739536e-05  5.2214069317008485e-04  5.2639727962306435e-04  5.0984149760007803e-04  1.3028305485854013e-04  3.8577028302046483e-04  4.3453689739976145e-04  4.1756153147255167e-04  6.9276426248933258e-04  7.0483605182835782e-04  7.0235802965482074e-04  3.2357548782659122e-05  2.3419083046206461e-05  1.8530705403658036e-05  5.1041855906478698e-04  3.1998276673161952e-06  3.1756319100102280e-06  2.7759886592688506e-06  1.2778555014749741e-05  1.4131408205925339e-05  1.2515575933823388e-05  6.9807031616363050e-04  6.6502890468157490e-04  6.6906487781967180e-04  6.6189255651337539e-04  5.1160543351765693e-04  4.9961073799266377e-04  4.8541985390961718e-04  3.8771374759839831e-05  4.3096564821718119e-05  4.5210898202595697e-05  2.8504615165672094e-04  3.0671202921107166e-04  3.0146867060642986e-04  6.3514068574406270e-06  5.2197477855117241e-06  5.3237385903849697e-06  3.5281056059174203e-04  3.7918822161405645e-04  3.6556757545888260e-04  7.0564358671492691e-04  7.0280187588573403e-04  7.0410676194520921e-04  7.4175828477666115e-04  7.3552960829706123e-04  7.4449090166485703e-04  6.6516073143802111e-06  5.2601836076526613e-06  4.8046662789185865e-04  4.7480694933953004e-04  4.6564894812724201e-04  4.6824676199442705e-04  1.3245617809550405e-05  1.3773364270365265e-05  5.0948049224124059e-05  4.7458462669770867e-06  5.1319592075702430e-06  4.7860034666372696e-06  2.1862044965851037e-04  1.9712654719108487e-04  2.1745959760570982e-04  6.8963857317403830e-04  6.9599522982186459e-04  6.8526510536760907e-04  5.8010094529353773e-04  5.9107770148801293e-04  5.7609893447377097e-04  6.9588441565231424e-04  6.9781149047085317e-04  6.8877394682832565e-04  7.3010863863815748e-04  7.4500227384872086e-04  7.1899090506531206e-04  1.0830135743320020e-05  1.3467848377697370e-05  1.4187244993537886e-05  8.5530202711058669e-06  7.6897092793708968e-06  8.8251579890503830e-06  3.0866053510451396e-04  1.5521067081197956e-04  2.7590902863171453e-04  7.1879843469581535e-04  7.1626510336501035e-04  7.2056958642872796e-04  6.9437622054897082e-04  6.9219555559373058e-04  6.9599811351290142e-04  6.9993220291813640e-04  7.0483633306268152e-04  7.1005281071714226e-04  7.0489334689470334e-05  7.6640452630843801e-05  6.5385115752919414e-05  9.4939526691209032e-04  8.7574552410751253e-04  8.7537685779438172e-04  7.0401078746687321e-04  6.9809429996946595e-04  1.5607797696068626e-06  2.4170218884026614e-06  1.7327673701772448e-06  7.1862856450686944e-04  7.2357856805771068e-04  7.1525113462655077e-04  6.1544162941203735e-04  5.9329908315755445e-04  6.1083576554324978e-04  6.9271608063897316e-04  9.8579976959172415e-07  1.1164490106074183e-06  8.6273566590646820e-07  7.7335034497432527e-04  7.8081890369092034e-04  7.8938223728963535e-04  2.0539289197462084e-06  1.9993638901268948e-06  2.3647716825157475e-06  3.8318319694855503e-05  3.1246423941478350e-05  3.4406597340745697e-05  4.5793155516803936e-05  3.7875398772778523e-05  4.1659927376989385e-05  1.0062054631854704e-06  9.7230551872664701e-07  1.1448993375034066e-06  8.1463945716746386e-05  7.7454768583770650e-05  6.2291853229431922e-05  7.0543089443215524e-04  7.0956920415500026e-04  7.0760352576120129e-04  7.8309901248902691e-06  7.0103255956611405e-05  4.5909397587879356e-04  4.3446196332441560e-04  4.5454768603807116e-04  1.2990902969049415e-03  1.3512306363004027e-03  7.8619160586577432e-04  2.0567652175625356e-04  2.7565007347381140e-04  2.8806468087562204e-04  2.6383539261868124e-04  1.6639710813059298e-04  1.1768916308819981e-06  1.7314456871314293e-05  2.9667617903122941e-05  1.9313146657911865e-05  7.1168999268773252e-04  7.1320916405607972e-04  7.1371414025524780e-04  5.9243176663691804e-04  5.7975757061861223e-04  5.8630041622670273e-04  6.1363052432573874e-04  6.1072502582470696e-04  6.0142988560616816e-04  4.8684732533211292e-06  4.8203991485312763e-06  5.0393992012865254e-06  3.8082124327238042e-04  3.5248096079515103e-04  3.6341103262658623e-04  6.9267513304763304e-04  7.0902267509423552e-04  7.1213482974077642e-04  7.0983741386352467e-04  9.1403081962366454e-04  7.8968282978633079e-04  8.4643642757240554e-04  2.0033877885415171e-04  1.8377228962559953e-04  2.0129880419598038e-04  6.2456004110888422e-04  6.3829578028054676e-04  6.1253047293231269e-04  1.3779133429071141e-04  1.2135235299557625e-04  1.2964457190248204e-04  6.1316623924719601e-04  6.0518336336580589e-04  6.0784586361634009e-04  8.8341028179427879e-07  8.7167902851602656e-07  1.1126020601472550e-06  4.9021288335280287e-04  4.6084486791780140e-04  5.2722675919804883e-04  1.1055517710688642e-04  1.0248840444228295e-04  1.1831211761730579e-04  2.6669462065453172e-04  7.0040927947001260e-04  4.6447630824639505e-05  4.4451856488940025e-05  5.9528903358144918e-04  9.5430472696931903e-05  8.3271631172563524e-05  8.2668918525331277e-05  1.0179302350364358e-05  7.1770040170340233e-06  9.3371092675983828e-06  7.1390745310367779e-04  6.9877241577259751e-04  7.0252307916313041e-04  6.9820238216981043e-04  4.8794531868789781e-05  4.8328363681017554e-05  5.3537792906417419e-04  5.4384029411236573e-04  5.4916366280378611e-04  6.2813616608976754e-04  7.2577713769772024e-04  7.2716846983829787e-04  7.2981332963788291e-04  6.8001758445323569e-04  6.8365664013920265e-04  6.7757225864453763e-04  1.7980349775322930e-05  1.7657201164075198e-05  1.2285465475494886e-05  8.1624423510543223e-04  8.0548050248438734e-04  7.9527539699888300e-04  7.4440626061763682e-04  7.3912683480080292e-04  7.4087894006356968e-04  5.2894042888802643e-04  5.3470370708731587e-04  5.4422975090641303e-04  7.5922065522746182e-04  7.6786265200813229e-04  7.5665410653116751e-04  2.5900536272021186e-06  2.4854960346046134e-06  2.3400600798732897e-06  5.8811532537634192e-04  6.0842311570578835e-04  6.0976881518202833e-04  5.5027514718892384e-04  3.2552923303537915e-04  3.3194411092052578e-04  6.9065455376288154e-04  6.8932848422738737e-04  6.9311881530946854e-04  5.8909365082881289e-04  5.9945189554094650e-04  5.8826324735025551e-04  6.8266780382974634e-04  6.9611472688158504e-04  6.8873910809264969e-04  6.6574325454839538e-04  6.6189815074064236e-04  6.5846075580775832e-04  6.7880730739580284e-04  6.7894062147065386e-04  6.8277108097637500e-04  5.1704872382741423e-04  7.0195700070040481e-04  7.0416902570453956e-04  4.4741433493651736e-04  4.7785256087971720e-04  4.5581780407111938e-04  5.2951854282205450e-05  4.3852746901888793e-05  5.1055617084788160e-05  1.8047583874403651e-05  2.8928579230035136e-05  1.7584884275883840e-05  7.0285346106072370e-04  7.0470287577121420e-04  7.0509935176202884e-04  1.4960775338352186e-04  1.5214997620311666e-04  1.6429234768026868e-04  7.7512963362669730e-06  7.1114871835010975e-04  7.2259992019612501e-04  8.8481206684403661e-04  8.9296445488625627e-07  1.1885135113432048e-06  8.6184118588654921e-07  5.5348063645497546e-06  5.7231305985911550e-06  6.4093032344191105e-06  3.3456003239999753e-04  3.4812137691969989e-04  3.5665011588514650e-04  7.3571258638474655e-04  7.6263363322757061e-04  7.0219862500598958e-04  4.5889405881516151e-04  6.8067338697213784e-04  3.4638083719226278e-06  2.5034411579032646e-06  2.6382329899156385e-06  4.4304441366522272e-06  4.6559261805534719e-06  4.7319686898837120e-06  2.2235421790182720e-06  2.6269720553159221e-06  2.8824692326399784e-06  2.6560488452758063e-06  6.4552073084244875e-04  6.4946153228854272e-04  6.4144087936068405e-04  3.3775796497719404e-05  9.0493118740443289e-05  5.3290027964502539e-05  1.0163398064976927e-04  1.6948808262781800e-04  2.1388491977821701e-05  2.5852470554843265e-05  2.2869973456846233e-05  2.4186907108720415e-05  5.0635348122489112e-06  5.5801960892764278e-04  5.6860436313157365e-04  5.6126918816129187e-04  1.1319384026143698e-06  2.8449809346553316e-04  3.0285750164937169e-04  3.2391905048171515e-04  6.9221657517702553e-04  6.9903873959379671e-04  7.1384863120132157e-04  3.4975036444346338e-06  3.2774266974421731e-06  3.5934595317636868e-06  6.6456839731632040e-04  6.6146762559220619e-04  6.5416954250783772e-04  3.6586219740842614e-04  3.3415220590344837e-04  3.7139613375302121e-04  6.2237531050586862e-04  6.3200696897450367e-04  6.1691987266934581e-04  5.5472282523197412e-04  5.7301900086496134e-04  5.6112503652672174e-04  9.1875916134137712e-07  8.2156931395753756e-04  8.0702696524112441e-04  8.3211900748413222e-04  1.1077398139516394e-04  5.8909469986275336e-05  7.1117232781890081e-05  9.2220168145068591e-04  8.8244573028484219e-04  8.9028035204519206e-04  2.1574241954278124e-04  1.6412508278645767e-04  2.9694501426710753e-04  3.9753241250349986e-06  4.3723857238707294e-06  1.7194358521463025e-06  9.3706415498443689e-04  9.3785386608507279e-04  9.6917642407917432e-04  7.3113602965096383e-04  7.3269016679131669e-04  7.4400653432521067e-04  7.4569832418530820e-04  2.3533858012060414e-06  1.1913404010732546e-03  1.1683059447389662e-03  6.2506841529172549e-04  4.6122372739792112e-06  1.3084062554971930e-05  2.1140723644045288e-05  2.0846758943698851e-05  5.5586113269843606e-04  5.3500084128078949e-04  1.9374481306942836e-04  2.0929363623227207e-04  1.8804148698418595e-04  5.9554944714871293e-04  5.9156526876251653e-04  5.9865193046445501e-04  7.3272642952234299e-04  7.2893263503762454e-04  7.3284871110721763e-04  6.5368079400732074e-04  3.0054562090824935e-06  2.9021410451692006e-06  2.8719621370455902e-06  7.1497514197748637e-04  7.1255730812590755e-04  7.1504665332453477e-04  1.0152596128836380e-04  9.9123904001645764e-05  8.8201477191958560e-05  5.6939126240340178e-04  6.9388561771305973e-04  6.9057608028357984e-04  6.9204447369708509e-04  6.8502331059291379e-04  6.8980542413728241e-04  6.7006202063086466e-04  6.6018860566494629e-04  6.6921684818455128e-04  4.4114224144078413e-06  5.6503000335991830e-06  6.1778316889033887e-06  7.3713893653991238e-04  6.5164071307846367e-04  6.4425747336580746e-04  6.5191934753382425e-04  6.8687620150634633e-04  6.8080741794212943e-04  6.8376534816231779e-04  2.9113064968613152e-05  1.7166690093008963e-05  5.9745617164442990e-04  2.2971845998426250e-04  2.5109368709386469e-04  2.4815304095466016e-04  3.4431572416260426e-06  4.3338344986035841e-06  4.4465310927594966e-06  8.2756629310631267e-05  5.2028397798616836e-04  5.3707205693140478e-04  5.4315112572391703e-04  7.0905344898775449e-04  7.0662439400974615e-04  7.0755537214902504e-04  4.5836955640813332e-06  5.0635176252036815e-06  5.4937479140924261e-06  3.1732010142641659e-04  2.2795616909603958e-04  1.4553951138753012e-04  1.0204998593171353e-03  9.7584045848381814e-04  9.4317273921098262e-04  2.7945602551910657e-05  8.2363751112049489e-04  7.7231596692212091e-04  6.0528668948179264e-04  6.3205381311617878e-06  6.8345973224719363e-04  7.1294632785670554e-04  3.1918460779458606e-04  3.5520839416682131e-05  4.0685122750578779e-05  3.5087335717142953e-05  1.5842589966406023e-06  1.2411021762909490e-06  1.4913901334786481e-06  5.2227330955826256e-04  5.2682516050538066e-04  5.3437071434660980e-04  6.5370840029631678e-06  6.9001359321619541e-06  6.5074482821494159e-06  5.5827913507523785e-04  2.7681116249896526e-06  3.8504522846396191e-06  3.9351486349531381e-06  7.1270636519907824e-04  7.0405697107803872e-04  7.1029415218676589e-04  7.4299415828199804e-04  7.3228755420250808e-04  7.4943914164704638e-04  2.1716261453687426e-04  7.5621558363490383e-04  6.0514802399234700e-05  4.9365052840043212e-05  5.6851384184350547e-05  4.3236426068616511e-04  4.6862456423655353e-04  4.4685439362201947e-04  5.7867855217864873e-04  5.8828033082713028e-04  6.4301663830784977e-04  7.0196057697691065e-04  6.9794872954825589e-04  6.9845112783315270e-04  6.8459804986682163e-04  6.8864033605770057e-04  6.9036832537438836e-04  6.9501035044433515e-04  7.0147040768202816e-04  1.3490274725072923e-05  2.1339173120738092e-04  9.7844122273627390e-04  1.1999432732867475e-04  1.0874207155756270e-04  1.0855305374591046e-04  4.9658700827691507e-06  5.5156545904366122e-04  5.2913948246852735e-04  3.4261465228185460e-04  3.6204057128188182e-04  3.6782807598222431e-04  5.0052769397079837e-06  3.5458352892669335e-05  6.1932337629289099e-05  4.6691857985623694e-05  1.9332416576683909e-05  6.6337312963756650e-04  1.2922450558754806e-04  9.1838822240822456e-04  6.5123573551809425e-04  6.3901510417390913e-04  6.5285510942802299e-04  2.4984920698739248e-06  2.9012283060999531e-06  2.6111466047198632e-06  6.8307726030367318e-05  7.4405199560502905e-05  6.2992225394839196e-05  7.1933253749408075e-04  7.2013891285304342e-04  7.1716709082265094e-04  1.0191732150895345e-04  5.9651233462972845e-06  7.4923033325437495e-06  5.8098287026244928e-06  1.1294864582667965e-04  1.1223462993908401e-04  1.0130803793480207e-04  6.4644002753667404e-06  7.9975616848561375e-06  5.9957848690020662e-06  6.3209748128806146e-04  6.2327312485260724e-04  6.2920015352196153e-04  7.1582564292994031e-04  7.1978868701279666e-04  7.1763171124983338e-04  2.9948604693614178e-04  2.9502568941904727e-04  3.1323373592155698e-04  5.1524867360076972e-04  5.2393949322138654e-04  6.0779715583780130e-04  5.8037799853279267e-04  6.3031174374942982e-04  2.9659525102429839e-05  3.1030251617273810e-05  2.4492797829616410e-05  7.1272058672606467e-04  7.1737102473183243e-04  7.1663771073728609e-04  7.4053249057208991e-04  5.4201788299163401e-06  5.7662397050139111e-06  5.5247802196518566e-06  6.6226831335501005e-04  6.8456556606353208e-05  7.8792110220806031e-07  9.4122356459028246e-07  9.7688660453748542e-07  7.0811616051102695e-04  7.3303453122878246e-04  7.3454031434405545e-04  7.4150429370073954e-04  4.0602868432488053e-05  4.3594572096314329e-05  4.8728379622354431e-05  6.2325900207658362e-04  4.3813685248925935e-04  7.4582747307118261e-04  7.5022188977035952e-04  7.5542348524331360e-04  2.6434063715003295e-06  2.6403330304034466e-06  2.8301267360555677e-06  7.0115207859496628e-04  7.0337579256677101e-04  5.1015182859599890e-05  7.9967705520924955e-05  8.2464497892236231e-05  8.5150145662925617e-04  8.9433970379808173e-04  7.1736657761279851e-04  5.8208183618183983e-04  5.7160689030090288e-04  5.7656804732479563e-04  6.0836672771748691e-04  2.4970118659457134e-05  6.4684340779269067e-05  7.4849777644089545e-05  3.6510499414009592e-04  3.7778771437422848e-04  3.6057434737753018e-04  7.5385182801753598e-04  7.5949529862731407e-04  7.4853065299609997e-04  6.0478113631336827e-06  7.0469858747921349e-06  5.6277909555431421e-06  4.7822778017079349e-04  4.6756113741915089e-04  4.5290702655462943e-04  6.5920078703172926e-04  7.4839487951765011e-04  8.1459402038914206e-04  8.1105860204576591e-04  8.1174741695294703e-04  9.4848254760010475e-05  8.5902421912101263e-05  8.2717844868578623e-05  7.2078647710844710e-04  7.1616368411305800e-04  7.8054526449636809e-05  8.6942621773106210e-05  6.9621152452283464e-04  6.9827419013975130e-04  6.9561990948789024e-04  1.2873861850209786e-04  1.2245446207024847e-04  1.1665200196833365e-04  6.8137377722605867e-04  6.7848401176883117e-04  1.1935863750732044e-05  1.1401240832431729e-05  1.1219664817698186e-05  6.6712643367892294e-04  6.7781774838657541e-04  6.7197543111429943e-04  6.9787288673206916e-04  6.9678725055873807e-04  6.9921971541964752e-04  5.5996736735240013e-06  4.7710791035185036e-06  6.5234380260383842e-05  7.7787853142538514e-05  7.1633155978959766e-05  5.7864287744177522e-06  5.0527454189249330e-06  7.2365996728297441e-06  5.1886431960954278e-04  5.5514746219277470e-04  5.6506719186607927e-04  5.5865077137775361e-04  1.2499066200798064e-04  7.0029198995134531e-04  6.6295915863178703e-04  6.7469332795291220e-04  1.6265912824158012e-05  1.8545377306587347e-05  1.5878394155370122e-05  1.0848028429994066e-04  6.2146111979174405e-06  1.3125552290282372e-06  1.0804268221554053e-05  8.4596438745904768e-06  1.0103055554958777e-05  6.8465484840333076e-06  6.1369387783059029e-06  8.4996715990062605e-06  4.5919504950676872e-06  5.0862123544484347e-06  1.1816670451359058e-03  5.9735994274340060e-04  7.7106150372036378e-04  1.1576837166557578e-04  7.2132494883363340e-05  1.2228013431551582e-04  7.0035255949964454e-04  6.9233365463595010e-04  3.5830216364603868e-04  5.9848169355097565e-04  6.1228740159912634e-04  4.0927984973546967e-04  3.4230321655938194e-04  3.8609880450889942e-04  7.3092908675804070e-04  7.3095909050397323e-04  7.2520530916023488e-04  6.9213372062400952e-04  7.0021992710329298e-04  6.9964297480757602e-04  1.1847707936833962e-04  4.0230363085168243e-04  8.6635644659057310e-05  8.8500096149024828e-05  9.8464123054236557e-05  7.7686015419636855e-04  7.6712838783791364e-04  7.6742765343506083e-04  7.6783454119726889e-06  6.7376289117785732e-06  6.5760740190738709e-06  1.3493418551192106e-04  7.6023349348142751e-04  1.4907970592203799e-04  7.5575520345382095e-04  7.5178926389329697e-04  7.5613409150597326e-04  2.2504057294543662e-04  3.7225945070494982e-04  3.1409770536775460e-04  7.6075671417353240e-04  7.5472635308108471e-04  7.5642380492380143e-04  7.2322966790754149e-04  7.0006158939300107e-04  2.2237439348805530e-05  2.4873091198857030e-05  2.6378102531191915e-05  6.6232258342499497e-04  6.6931321453459554e-04  6.7396389188157226e-04  4.6916236021974066e-04  4.5487916152797003e-04  4.5963256260343407e-04  7.0768167225185687e-04  3.8039914272931991e-04  7.7905987313115982e-06  9.6519018339385270e-06  8.4613572889802154e-06  8.5032532070985918e-06  9.1628831490794794e-06  1.0274415446429866e-05  6.5145074778530300e-04  6.4224649970031689e-04  6.4318995237511579e-04  4.0148496108275528e-04  1.1894443149090623e-05  3.2124751368310016e-04  7.1975055268988812e-04  7.1965692896280972e-04  7.1255728951330488e-04  2.9566117949597403e-04  6.9924030852234933e-04  7.0162277377217063e-04  7.0019853466040641e-04  1.0978968368993236e-05  1.2055473039094182e-05  1.3542504825277254e-05  5.6570765926834590e-04  5.7144297523018135e-04  9.9476264700537782e-05  2.3005997273530993e-04  2.1829969418884064e-04  1.1581965238794005e-05  6.8887135619351324e-04  6.8276107076883897e-04  4.7420096585947652e-04  4.4558192170923537e-04  4.8706151573204296e-04  1.4774009615508482e-06  1.6774234330567023e-06  1.2908011993828036e-06  7.0267002539187737e-04  1.1469015212439956e-06  5.8219448873927124e-04  9.3289801921745355e-06  1.0224034568268935e-05  8.5194207669676931e-06  6.2425269400266875e-04  6.2462426460535450e-04  6.3434808704228881e-04  5.8339262858313895e-04  5.6553320861717834e-04  5.7374724955300228e-04  7.5745344595049024e-04  7.6890596087936843e-04  7.5016538346400405e-04  7.6304443494262515e-04  6.8439775209463744e-04  5.2222757967793640e-04  5.3004868326977017e-04  5.1861517994083084e-04  5.1152591124653954e-06  4.5524721466480306e-06  3.7450001631562818e-06  7.9539894640236295e-04  7.9625775631715601e-04  8.0361627379813428e-04  7.7932528795521391e-04  5.3304349686469021e-04  2.8100253438328776e-04  8.3105712820590527e-04  7.0318522283408647e-05  6.2655614420412974e-05  7.5464123129391985e-05  6.0421363143949722e-05  5.5189226952376911e-05  5.1073649151167367e-05  2.7760491062425545e-06  1.3066062678647671e-05  1.2989549906846661e-05  1.1636769361193511e-05  7.0194333646135586e-04  6.9789143889107264e-04  6.9779357588959333e-04  2.8927716260585927e-05  1.0707860522406107e-05  1.1271998063649060e-05  9.4624226180904004e-06  7.2520700767149133e-04  6.4246841810678172e-04  6.3934095227135613e-04  6.3273011439703088e-04  5.6098546755853948e-04  5.7197673272822247e-04  5.4037979896837227e-04  2.7181242424904328e-05  2.3389519667192429e-05  3.0240265577002252e-05  8.0764620036015693e-04  7.0356274978722690e-04  7.0116496756016859e-04  3.4345603144012531e-04  6.7715988257413919e-04  4.5668269606918501e-04  2.5611398740648614e-04  2.8318424537696459e-04  6.8248013915483187e-05  1.9725669766800979e