<?xml version="1.0"?>
<VTKFile type="UnstructuredGrid"  version="0.1"  >
<UnstructuredGrid>
<Piece  NumberOfPoints="7728" NumberOfCells="15128">
<Points>
<DataArray  type="Float64"  NumberOfComponents="3"  format="ascii">0.4301528014186955 0.4298797043935643 0  0.4293248134935059 0.4185586764506676 0  0.4214834124720171 0.4218324831403495 0  -0.08559264909810248 0.2184876237910115 0  -0.09523162420417441 0.2194437160028275 0  -0.08791185649983577 0.2091073943060879 0  -0.1465123035884944 0.432717119960178 0  -0.1371834592601369 0.424698075990399 0  -0.1385288937608097 0.4373976701603043 0  -0.5 0.4127566896324213 0  -0.5 0.4031812128200121 0  -0.4902994074073384 0.4074494795824961 0  0.09024613933824489 0.4781120739656126 0  0.0933155188518916 0.4895845157020997 0  0.0829774079100483 0.482288729167381 0  -0.1287167150007658 0.4338930560544612 0  -0.03994054255915485 0.1843739599920573 0  -0.03212149259489155 0.1760718970112855 0  -0.03198564666646322 0.1872563943297354 0  0.1506583986267356 0.2874403806624499 0  0.1612349119169872 0.2797164781725275 0  0.1526885773121235 0.2768775068452843 0  -0.3041933375414425 0.1552962787369889 0  -0.2958070052422007 0.160597789145515 0  -0.3063261001846426 0.1651229488266085 0  0.08364681739780096 0.4918389643252714 0  -0.4010738657800832 0.3107072169746339 0  -0.4031376899632865 0.3218902724669491 0  -0.3941869208863597 0.3191578499678918 0  -0.4824164333943274 0.3529424973048867 0  -0.4904591394543069 0.3605919582069659 0  -0.4787282960730884 0.3632812589732464 0  0.1621937559941708 0.2897084626288494 0  0.2200000000007767 0.5 0  0.2266770459673737 0.4891454605377314 0  0.2150000000007906 0.494070635928735 0  0.01132785076087824 0.2351265822100481 0  0.004025061924042422 0.2270398149852844 0  0.005334166261014847 0.2400744598531132 0  -0.1809699693600755 0.2351266288121367 0  -0.173667878605497 0.2270397067322088 0  -0.1749758876640578 0.2400736572588687 0  -0.04735416238385137 0.3084916580310646 0  -0.03958104525790275 0.3017109721815985 0  -0.04022031810808564 0.3127001313991637 0  -0.439331219421661 0.3766174521400052 0  -0.4302809024495696 0.3853349020424781 0  -0.4313681272434796 0.3726647714920578 0  -0.01254336186881605 0.3548147785220297 0  -0.001510041189534698 0.3520156633609962 0  -0.005477322840463117 0.3637660352473006 0  0.2906026827068128 0.2862785659764152 0  0.3019438881330127 0.2827926005078699 0  0.2952498681705479 0.275480309304373 0  0.2060892002931355 0.1690404904672964 0  0.2145887834930549 0.175077624252056 0  0.2045139796654503 0.1762110796515674 0  -0.4408001217766457 0.391028286200248 0  -0.4303915784012729 0.3959889621446451 0  0.0583972750586039 0.4132203121003322 0  0.05371171918015882 0.4039641502889484 0  0.05076859829744053 0.4145266969422832 0  -0.002003683238403816 0.2350264315399713 0  -0.298225204307873 0.171080096427281 0  -0.4859057911139843 0.3690968765276264 0  -0.1677198406702055 0.2350008664285762 0  -0.4245313652317673 0.2457897297396278 0  -0.4349627676518225 0.2495597222555704 0  -0.4264717645177953 0.2553275416054197 0  -0.07441820092927255 0.3437430193407162 0  -0.08523316222954795 0.3486935209070671 0  -0.07479864842347012 0.3521312061977401 0  0.2462109850665596 0.1417290005956053 0  0.2353922208483022 0.1372640293053277 0  0.2447393393579754 0.1343684741689244 0  0.126143890147936 0.4479298256245561 0  0.1330723166848467 0.4400180449370222 0  0.1220152276540013 0.4409271500149842 0  0.1759683609380617 0.3040836159903125 0  0.1859922824731085 0.3088330642455778 0  0.1755003264649886 0.3158335207574144 0  0.05503047726665449 0.1882285333120312 0  0.050052970836762 0.1790934328072465 0  0.04415367546269549 0.1834694162665104 0  -0.224673334411532 0.1882285333116649 0  -0.2196958279817065 0.1790934328069041 0  -0.2137965326077032 0.1834694162662072 0  -0.4771566242214346 0.2678067479529653 0  -0.4663223229417238 0.2714736992055615 0  -0.4753585172166018 0.2775946395024117 0  -0.3080357142862469 0.120088589247209 0  -0.3076616386178176 0.1303414909000259 0  -0.2994190930055523 0.1217218352670721 0  0.3700000000003606 0.5 0  0.3632258362414532 0.4901372357141994 0  0.374511143063552 0.4919670291702244 0  0.3721921806399926 0.3128134837372821 0  0.3834623560781545 0.3095932167030788 0  0.3772490052446142 0.3193807204532692 0  0.1375201342840787 0.2685160580029517 0  0.1312815534866872 0.2588224405859477 0  0.1417106244850543 0.2605964426603999 0  -0.1779711807868274 0.3965737881816591 0  -0.1728088211796831 0.4075388118969518 0  -0.1844939125695736 0.405422086108046 0  0.0380141700321618 0.1289763399652269 0  0.04027212952246088 0.1405769561884672 0  0.030997110651545 0.1377228012821126 0  0.1720143924696237 0.2880808468773411 0  0.1713428117112401 0.2967124323315568 0  -0.3419006693977408 0.4302415922263585 0  -0.3321022908240916 0.435291410928624 0  -0.3401752226292143 0.4401723469420832 0  0.4397694620430982 0.3500578817184244 0  0.4500550303837885 0.3504222172349927 0  0.4448065729780818 0.3408602469709414 0  0.09071916951411059 0.2971106492655552 0  0.07851527399279083 0.2981859373806167 0  0.08257262281262831 0.2886530030888572 0  0.1852963021610818 0.3177132986070278 0  -0.3772044495878739 0.4489102411091769 0  -0.3815819312659189 0.4588379539619521 0  -0.3724579371629195 0.4561084312058448 0  0.1709851269258648 0.1330181685335966 0  0.164577493084018 0.1256563390042854 0  0.1612009715464842 0.1334829469959427 0  -0.3766369793583356 0.3222566016949557 0  -0.3798475359811067 0.332733809155234 0  -0.3860972446368247 0.3237932660840142 0  -0.2122656284968389 0.3559209481510414 0  -0.2231390377576284 0.3520697848885052 0  -0.2166994866486932 0.3467150550299288 0  -0.2044084873617347 0.3731423582697778 0  -0.2151834419273531 0.368036346565584 0  -0.2112650907921009 0.3788430017631544 0  -0.3597733961336687 0.3840520005832508 0  -0.3645674422101735 0.3946943527768993 0  -0.3715903435286772 0.3851913851676531 0  -0.1396604493015806 0.1583480566930887 0  -0.1476898591425476 0.1534110385803823 0  -0.150748914431126 0.1632560903498436 0  0.2801779821035303 0.2337058656633353 0  0.2731028247806488 0.2411147198145403 0  0.2741862973430237 0.2297025072272037 0  -0.4653214619123232 0.2782375819458921 0  -0.1429809562578837 0.1680883865846629 0  0.03076523486684546 0.3398304516498473 0  0.02178021474204219 0.3476575260646912 0  0.03143653487241189 0.3502278421827749 0  -0.08928571428685395 0.1 0  -0.08035714285830731 0.1 0  -0.08276538418135869 0.1094829999223174 0  -0.08069302279494821 0.3566885450668409 0  -0.04535471151353108 0.3757680529374156 0  -0.03859770699626507 0.3853796912484584 0  -0.05055825188769141 0.3832542530770671 0  -0.09773272728425204 0.2094032520804052 0  -0.3755249277394466 0.395204975502496 0  -0.3818438337622291 0.1675479091046081 0  -0.3775298320303543 0.1573948891566206 0  -0.3714330686715698 0.1655280777467928 0  0.2611441333065299 0.2837434038641459 0  0.250389075822865 0.2844747710617656 0  0.2561769911976881 0.275239152219664 0  0.1400000000009986 0.5 0  0.1300000000010264 0.5 0  0.1349504119828615 0.490153774714903 0  0.1448159640040156 0.4121806247126251 0  0.1457144574024879 0.4240753373323932 0  0.1357860771841101 0.4162773248813054 0  -0.4225327081968155 0.2272117111835015 0  -0.4250360168849188 0.2362480192972036 0  -0.4325146555307054 0.2311871907861572 0  -0.002992699553798008 0.3405447382417915 0  -0.01452811117261945 0.343206320288175 0  -0.01182445829985416 0.3328008695468301 0  0.1273448950177487 0.2677134063181503 0  0.3415914478252483 0.4534929692314442 0  0.3537376573339029 0.4490242263450663 0  0.346141537813676 0.4421091341179351 0  0.0005198194491365062 0.123612605363961 0  -0.005194376127262185 0.131492584272441 0  0.004390696803407098 0.1304885273827742 0  -0.0848223841956393 0.2584291311739456 0  -0.09174751492901442 0.2489755555618796 0  -0.08470938645110004 0.2463537019950441 0  0.07602001733128075 0.2675157652518768 0  0.08611012667280619 0.2704197955518713 0  0.07673977553853591 0.278202029933495 0  -0.121992985972394 0.400748999238995 0  -0.1337095685129487 0.398136086434097 0  -0.1273237073641656 0.3911356136235424 0  0.3757926671360805 0.1557340965981443 0  0.3854304124289478 0.1526976661163702 0  0.3760399509945578 0.1480053341020623 0  -0.3699755295254641 0.4309022120114983 0  -0.3709419539169024 0.4404044179511574 0  -0.3795485569097365 0.4325538394313739 0  -0.02465511021035985 0.167503690332337 0  -0.03408009838530297 0.1597906272722227 0  -0.02212557985219664 0.1593500853083564 0  -0.1292441398206726 0.2689679585561044 0  -0.1327327765406075 0.2577804396442022 0  -0.1234173649494807 0.2580309397155822 0  -0.04859450025076664 0.3927060845745354 0  0.2366404325300897 0.1446292614903707 0  -0.2016815205812364 0.3623473964956916 0  -0.2024193027621807 0.350928465340433 0  0.1334854826555854 0.4262944628896248 0  -0.1280211915376581 0.1955220234751905 0  -0.1363148358358212 0.2046602976620198 0  -0.1350972707801067 0.1937109323622725 0  -0.2507887552267173 0.1768339856046225 0  -0.2527867650419344 0.1868715348518789 0  -0.2431592714029244 0.1809864432258096 0  0.4372814776475923 0.343389655813208 0  0.2293266361657646 0.3399562932097067 0  0.2320386238240533 0.329334299257138 0  0.2216597149270816 0.335613804937926 0  -0.3855967450785084 0.148867636996457 0  -0.3745895056076544 0.14917887153352 0  0.07472897263274798 0.3608304199238726 0  0.08186003242608114 0.3678333471925798 0  0.08069069017702166 0.3558084291272243 0  0.08742687919768305 0.2806619320217654 0  0.2346789143311082 0.2276953229562641 0  0.2296025551115074 0.2336164243803852 0  0.2265641621522574 0.222590889762379 0  0.2379675577345038 0.4330121119995557 0  0.247875479721261 0.4374555008681802 0  0.2351491730493422 0.4414619415468398 0  -0.2434391441115647 0.1652180752555862 0  -0.2326190756943587 0.1662516752342565 0  -0.2418052846736646 0.1734912016800042 0  0.07272758104574213 0.1661064342774871 0  0.06291104200820101 0.1663038564678387 0  0.07216242752883364 0.1734912016802553 0  0.1926545143398746 0.218763
[...]
<PointData  Scalars="f_26"> 
<DataArray  type="Float64"  Name="f_26"  format="ascii">1.8505849527105819e-02  1.8416447371861315e-02  1.8304292885530874e-02  3.7696666022830985e-03  3.2188183529009489e-03  3.5971895035996409e-03  2.0698201996946003e-03  2.2981808753344359e-03  2.2821482971732217e-03  3.5897736399011763e-04  3.5273197998722793e-04  3.4133427691619797e-04  1.1837157972437944e-02  1.1949651529904621e-02  1.1515487088845682e-02  2.5467153967048111e-03  7.6684407830603920e-03  8.6975200171264585e-03  8.4657624392165138e-03  1.6617806918219485e-02  1.7012828825199375e-02  1.6915299365564605e-02  1.3477349850982509e-04  1.1696888735227838e-04  1.1736287403803004e-04  1.1530934987557204e-02  8.0902102694543128e-05  8.0228856688048143e-05  7.1115343343553241e-05  2.7375472885568015e-04  3.0342086236878521e-04  2.7117117866839915e-04  1.6805862503973125e-02  1.5864140665364661e-02  1.5992521967594476e-02  1.5765441089802809e-02  1.1220649985649532e-02  1.0862276169661095e-02  1.0564723452152040e-02  6.1669606852387691e-04  6.8563564062980472e-04  7.3528209586557782e-04  5.8770341555873960e-03  6.3688729083263475e-03  6.2646501852361572e-03  1.4799544362590006e-04  1.2500187555409715e-04  1.2652736688774014e-04  7.5336078165151700e-03  8.1683760131475210e-03  7.8497562691736741e-03  1.7395646196724391e-02  1.7336651639579575e-02  1.7371165363455905e-02  1.8436961340349046e-02  1.8267077023451282e-02  1.8493454443458606e-02  1.5534767740499011e-04  1.2632740140060408e-04  1.0741911709422527e-02  1.0593006256474219e-02  1.0363765214675535e-02  1.0101327068331651e-02  1.0307245380485866e-04  2.9845515606958552e-04  8.3448324595958583e-04  1.0794925011847462e-04  1.1261321326644056e-04  1.0947698092725017e-04  4.4137475104161416e-03  3.9422289537650469e-03  4.3961775881555002e-03  1.7104364441551327e-02  1.7280680852652223e-02  1.6996209893858638e-02  1.3390689456193679e-02  1.3692830439109327e-02  1.3279565712609770e-02  1.6765791732343008e-02  1.6844333043715527e-02  1.6543893952125847e-02  1.7090033251806469e-02  1.7396456688988704e-02  1.6631118734283294e-02  1.0937342179615833e-04  1.0964175491354331e-04  1.3596129507760949e-04  1.6721396369600964e-04  1.5480278060126703e-04  1.7553744738403127e-04  4.2671331189865459e-04  2.7032330535156965e-04  3.9097434311947233e-04  1.7744752880839574e-02  1.7661931649772408e-02  1.7801531228727262e-02  1.7155168444333149e-02  1.7105635811787326e-02  1.7199205129086872e-02  1.6799566177709589e-02  1.6926988223191993e-02  1.7119522011335070e-02  1.3028262062214344e-03  1.4294832523428780e-03  1.2040522595254657e-03  2.1390131796955078e-02  2.0150990953341438e-02  1.9575956991478231e-02  1.7012837264877848e-02  1.6825834349393665e-02  2.4410609050557399e-05  3.6174237195035934e-05  2.6261876350495953e-05  1.7817452394688345e-02  1.7948249249655632e-02  1.7729575115612583e-02  1.4278212679320310e-02  1.3652287119230928e-02  1.4129706611838367e-02  1.6683031451379275e-02  2.4879094352753079e-05  2.8585049451911463e-05  2.0749722325713509e-05  1.9327078754990238e-02  1.9538545115566752e-02  1.9736861146044872e-02  5.3627071682058665e-05  5.2198081419563261e-05  6.1294034915491247e-05  6.6596461542890424e-04  5.3392250019250486e-04  5.9070705309744928e-04  8.1248028862962712e-04  6.6116668842252876e-04  7.3547681619812806e-04  2.3813806355164935e-05  2.3573801760398581e-05  2.9417041991645726e-05  8.9694268774730308e-04  6.7981483111047454e-04  6.8658406726332074e-04  1.7434593836720851e-02  1.7530878926553691e-02  1.7492124853588406e-02  1.5933534863474470e-04  8.9660463693395118e-04  1.0142725294780523e-02  9.5292225374996875e-03  1.0038728754521260e-02  3.2381575292033094e-03  3.9614241037052821e-03  3.4367298943874889e-03  4.1381494831881855e-03  5.7367793778637099e-03  6.0308933600017921e-03  5.4704254687393539e-03  3.0347832840079240e-03  3.0428481949423645e-05  1.2851537661443476e-04  1.4138735756837831e-04  1.3365329824298366e-04  1.7515569733898277e-02  1.7533043663888834e-02  1.7575928742246869e-02  1.3735007132839859e-02  1.3384368587875761e-02  1.3564816669263409e-02  1.4321788525891287e-02  1.4241690846935299e-02  1.3977258671561374e-02  1.0634430183633792e-04  1.0735767362890455e-04  1.0753544414916419e-04  8.1951071254324510e-03  7.5130997230495955e-03  7.7635193702464602e-03  1.6552471919038234e-02  1.7416558846302041e-02  1.7536026933250379e-02  1.7456511817080068e-02  1.6685894158779375e-02  1.4861891666528059e-02  1.6643195680979446e-02  3.8863577414485337e-03  3.5096274023637226e-03  3.8797784113234241e-03  1.4468037613104145e-02  1.4878029610322354e-02  1.4152584563085376e-02  2.6931780080342409e-03  2.3450152365453148e-03  2.5161319173652398e-03  1.5066615431256168e-02  1.4857724308391640e-02  1.4928104169542763e-02  2.1285955633483425e-05  2.0976979321266178e-05  2.8588569427743881e-05  9.8622243296283604e-03  8.8682939590491606e-03  1.0494772034691121e-02  2.0213058118507335e-03  1.8457085481327724e-03  2.1639801419909305e-03  5.5426363688781078e-03  1.7388835627552991e-02  8.2164529496544614e-04  7.7996240418220836e-04  1.3807595549296921e-02  1.5782765271106073e-03  1.3810457410487866e-03  1.3318892950001215e-03  7.1576924174908456e-05  7.1087348798094132e-05  7.4411878798887274e-05  1.7693210471328234e-02  1.6949586565800659e-02  1.7082105948515593e-02  1.6918386570697670e-02  1.5467735280169970e-04  1.5976339468828631e-04  1.2147867234457533e-02  1.2379116028205003e-02  1.2513412735846129e-02  1.4609732665632093e-02  1.7939569803003218e-02  1.7960427513421126e-02  1.8044805511880983e-02  1.6344166191763747e-02  1.6469076639667485e-02  1.6263851119552541e-02  7.6758768373676086e-05  7.9792215746865358e-05  7.4257594635678036e-05  1.9681501302430290e-02  1.9216169845924998e-02  1.9096792846781424e-02  1.8383217017595582e-02  1.8240553389648143e-02  1.8262654724760907e-02  1.2007372733050050e-02  1.2162118853905892e-02  1.2413064282109511e-02  1.8877934554493873e-02  1.9103855390173181e-02  1.8812665569613064e-02  6.6420330898513374e-05  6.4138524400833699e-05  5.9767832693268300e-05  1.3536942909625630e-02  1.4107430506890312e-02  1.4134333586831560e-02  1.2576731003754503e-02  6.8675727023684895e-03  7.0309715973409176e-03  1.6669333718720463e-02  1.6632481880417764e-02  1.6763272498371777e-02  1.3641548224431704e-02  1.3929956457779389e-02  1.3617811215684096e-02  1.6276315861853928e-02  1.6702931335884203e-02  1.6449256556780922e-02  1.5879770239132864e-02  1.5760494772268215e-02  1.5652229905596771e-02  1.6757547761323793e-02  1.6762499105281253e-02  1.6858022826138221e-02  1.1696768113489943e-02  1.7312415597751169e-02  1.7357553924346038e-02  9.7297856537726952e-03  1.0488678474347339e-02  9.9165720124964885e-03  9.0412805900603012e-04  7.3227133330948423e-04  8.6299448177666951e-04  1.3234906319800944e-04  1.4596201521537626e-04  1.3307662464988548e-04  1.7170700573510590e-02  1.7239405099758038e-02  1.7255742000696621e-02  2.9331682017465230e-03  2.9942946571377277e-03  3.2514518418234471e-03  7.9361765276019029e-05  1.7576607524716455e-02  1.7847585744324216e-02  1.5235632562098545e-02  2.1886032839130612e-05  3.0632987637813655e-05  2.0754196451140784e-05  7.0732536033787940e-05  7.8331648083669879e-05  7.7090236668338419e-05  7.1588962327465795e-03  7.4811462174657001e-03  7.6870157030039720e-03  1.8119782998139652e-02  1.8969444421787180e-02  1.7144494601660908e-02  1.0190063510496465e-02  1.6369333655914146e-02  8.7233168323550041e-05  6.4107980887813493e-05  6.7395830153541166e-05  1.0465745681590850e-04  1.0610882444641139e-04  1.0620195043464710e-04  5.7139384081233780e-05  6.7692343588683914e-05  7.3801936751327854e-05  6.8551212509822620e-05  1.5902409048226880e-02  1.6003502984865765e-02  1.5795807653148235e-02  5.8255812641910842e-04  1.7985464641791951e-04  1.5140488120761000e-04  1.9748024938621612e-04  3.3687618275806842e-03  3.6733776843637077e-04  4.5007120420776715e-04  3.9441109118752487e-04  1.4119019896820465e-04  1.0562364286248638e-04  1.3599621512888072e-02  1.3881830907009127e-02  1.3685785695455800e-02  2.9078341710698527e-05  5.5987880203879946e-03  5.9515522886909823e-03  6.4626676763359144e-03  1.6319160683721176e-02  1.6464896023131673e-02  1.6946048556459401e-02  8.8424717570394115e-05  8.3519287070729165e-05  9.0524846864714750e-05  1.5819256579249756e-02  1.5720420395772115e-02  1.5501153841069244e-02  7.5605558372107140e-03  6.8365993332532094e-03  7.7256545130421472e-03  1.4563829070776918e-02  1.4839114515198428e-02  1.4404840731432554e-02  1.2691499860146328e-02  1.3188546944015509e-02  1.2867286364453718e-02  2.2728023764310012e-05  2.0003645272840702e-02  1.9677239689425838e-02  2.0362745371967805e-02  1.7103869167835862e-04  1.1690426157915085e-04  1.2696809422847239e-04  2.2257159058604113e-02  2.1351335484251187e-02  2.1308528556884320e-02  3.0096327893933806e-04  2.3727872618413689e-04  3.8037622680931062e-04  9.8132571609078336e-05  1.0660130007198414e-04  4.4946129553960854e-05  2.3103813045584669e-02  2.2928559634513998e-02  2.3705794195646133e-02  1.8063237700347273e-02  1.8247818450268346e-02  1.8551019235013868e-02  1.8576869135826644e-02  6.1122116683685326e-05  1.2488923219929717e-03  1.2332062304147599e-03  6.9115376655625956e-04  1.0598058446905619e-04  7.4295200663381113e-05  7.1770348715875673e-05  7.7907974606484070e-05  1.1401968681231122e-02  1.1095265306887590e-02  3.9046192038984045e-03  4.2451704466993289e-03  3.7734374324948686e-03  1.4599832778395563e-02  1.4493938866653476e-02  1.4682420677659480e-02  1.8168409807023472e-02  1.8066513552315710e-02  1.8175392754110758e-02  1.6114114214417118e-02  7.0207805274282139e-05  6.9939723826796321e-05  6.6064842981008128e-05  1.7548788471579625e-02  1.7455868224112738e-02  1.7523527821369622e-02  1.7826146741584104e-03  1.7521145683140570e-03  1.5228328462479901e-03  1.3902544025393910e-02  1.6836297491032579e-02  1.6715840815648159e-02  1.6769594823341911e-02  1.6474472328223924e-02  1.6631743803621462e-02  1.6544533067963971e-02  1.6287457498767619e-02  1.6523469333787962e-02  7.0567959190265901e-05  9.0028643140102792e-05  9.7910006423922744e-05  1.8291732642064847e-02  1.6099976094110093e-02  1.5910505681714385e-02  1.6114404386933359e-02  1.6524018334668322e-02  1.6323278941251799e-02  1.6426581655676242e-02  1.4596524304676621e-04  1.3298778159700965e-04  1.3783560451243281e-02  4.7174786338124355e-03  5.2025647610286401e-03  5.1317973449601963e-03  6.3381890144692977e-05  7.5103056407076698e-05  7.5970525853103458e-05  1.4268666011767099e-03  1.1707702572883366e-02  1.2139389554469228e-02  1.2313952190993982e-02  1.7481685481376623e-02  1.7426667278829317e-02  1.7457514251408894e-02  7.8721208783796723e-05  8.3085609747601634e-05  8.9564967494406474e-05  3.8228219697606866e-04  2.9432217877008133e-04  2.0425626186707408e-04  2.3808696705945265e-02  2.3371786784495044e-02  2.2482311945588945e-02  1.3585635954102906e-04  2.0197204322859409e-02  8.4418573133309468e-04  1.4858010288648672e-02  9.9285604444214918e-05  1.6876780328180806e-02  1.7437292765311883e-02  6.3939729755232832e-03  6.2345450193336256e-04  7.2285224404499814e-04  6.1721373133058987e-04  3.0812174320651985e-05  2.7912889087517299e-05  3.1281148736780522e-05  1.2649796678656507e-02  1.2769868429261269e-02  1.2970861684478727e-02  9.9571497596523690e-05  9.0636996662523498e-05  9.0947727162856711e-05  1.2764250147710016e-02  6.5966562477988840e-05  7.1216515838854599e-05  7.2032617909361161e-05  1.7667267413841788e-02  1.7443863203831175e-02  1.7596604419475061e-02  1.7977594917000309e-02  1.7672685868448303e-02  1.8226068370318236e-02  4.2438743841798536e-03  1.8854969693906716e-02  1.0279801773690467e-03  8.1694911784804380e-04  9.5024288793939097e-04  9.2774086961887915e-03  1.0169306131165925e-02  9.5977113800649466e-03  1.3339581374818277e-02  1.3607111088450165e-02  1.5872069172596974e-02  1.7366039670261024e-02  1.7258037562993506e-02  1.7277090662240608e-02  1.6925493230222181e-02  1.7032210279052964e-02  1.7076178706821897e-02  1.7198764566962853e-02  1.6197112353776345e-02  1.4812185276990070e-04  2.7231598541429571e-04  2.2822657141434510e-02  2.3340602061359805e-03  2.0973401458712296e-03  2.0957407063274514e-03  7.2331794317857660e-05  1.2549505210942306e-02  1.1953786781766894e-02  7.2113374320150496e-03  7.6594523179294039e-03  7.8184912905171003e-03  1.0976644634958805e-04  7.4224996160716374e-05  9.3681977294533751e-05  8.2613423209205653e-05  3.2930431448506537e-04  1.5803481047021960e-02  2.0419585173412554e-04  2.2565173952298245e-02  1.5391283784561454e-02  1.5027884823303868e-02  1.5432320838193396e-02  5.6844920672034798e-05  6.0434195454242124e-05  5.6322393289642776e-05  1.2734533007016235e-03  1.3966750972509690e-03  1.1681244766815980e-03  1.7688806174783363e-02  1.7681278491135637e-02  1.7599111802775881e-02  1.7386761991244190e-03  1.4312253298572170e-04  1.7575964024977252e-04  1.3936529622563575e-04  2.1757109540254398e-03  2.1571491019214272e-03  1.9318871140306512e-03  9.3791874552371165e-05  1.1620863299241106e-04  9.1293435081559520e-05  1.5556824753388385e-02  1.5328847052134838e-02  1.5481642732414707e-02  1.7654342780200265e-02  1.7781769394897763e-02  1.7717434610799866e-02  6.2585620184347525e-03  6.1670306231790964e-03  6.5860636764784753e-03  1.2462655625418140e-02  1.2692634506154835e-02  1.3340949054423434e-02  1.2730542551498874e-02  1.4035617047556449e-02  3.7015993357579881e-04  4.2773584264647224e-04  3.0142354574326898e-04  1.7647929890724230e-02  1.7772755604304108e-02  1.7756996768324693e-02  1.7969664856797487e-02  1.0219081610351536e-04  9.7480932607279646e-05  1.0110719189242009e-04  1.6342250765606362e-02  1.2781435674060313e-03  1.7226551094625386e-05  1.6273350127710812e-05  1.7026252938442177e-05  1.7081597568714121e-02  1.8195086696215862e-02  1.8235433019030193e-02  1.8416264572638341e-02  6.8881977672164676e-04  7.4824300141778223e-04  8.4075748504547734e-04  1.4583533376827282e-02  9.6107494419572937e-03  1.8527356324654663e-02  1.8643859335253511e-02  1.8777282678264548e-02  5.9864989987962303e-05  6.2982334730463685e-05  6.2298679108465811e-05  1.7107785081300016e-02  1.7192671778027496e-02  1.1253284414671329e-04  1.4334921627369909e-04  1.3808850060429787e-04  1.9958591513113664e-02  2.1102609660065882e-02  1.7781351093973333e-02  1.4241216656215173e-02  1.3961453491980663e-02  1.4094062835274103e-02  1.3547687747463986e-02  3.3784056500783257e-04  1.1837651220776781e-03  1.3876245117505051e-03  7.8599093928944565e-03  8.1605202190495208e-03  7.7438859662797262e-03  1.8485819927919884e-02  1.8614374391754052e-02  1.8286942892068492e-02  9.8074337696042702e-05  1.1242301788816816e-04  9.2382109026717624e-05  1.0574390378297353e-02  1.0317700555975246e-02  9.9316987868952461e-03  1.5657307911921121e-02  1.8243554473763694e-02  2.0329348449169608e-02  2.0237500075223180e-02  2.0255635407387070e-02  1.7352741703896115e-03  1.5500567854873565e-03  1.4949364297295619e-03  1.7877887450429512e-02  1.7765573963757549e-02  1.4615212875750919e-03  1.6404526396692741e-03  1.7195110062061186e-02  1.7238910675433726e-02  1.7177098795698984e-02  2.5226314226600229e-03  2.3907480306635857e-03  2.2680180124788518e-03  1.6299979463746599e-02  1.6216516225329252e-02  2.3935488348350443e-04  2.2570156334137057e-04  2.2431368745509371e-04  1.6465580261174558e-02  1.6744307129980100e-02  1.6592500662747207e-02  1.6980494237556272e-02  1.6932861184933007e-02  1.7033165763008031e-02  1.0054263101490680e-04  8.1059892784018180e-05  1.0851419357894431e-03  1.3176130244898286e-03  1.2152635257307669e-03  8.9346343794297008e-05  7.6985369681736065e-05  1.1378937906396532e-04  1.1657080503597176e-02  1.3521157757330201e-02  1.3786203269149701e-02  1.3614180307735981e-02  2.4257083500728539e-03  1.6043695788885360e-02  1.5026978633084704e-02  1.5419676214580126e-02  1.6540434035525349e-04  2.2096715252592169e-04  1.8961382781285916e-04  2.0976829780362002e-03  1.4571240224813494e-04  3.3984181827710208e-05  1.7394818256685627e-04  1.3505031673900975e-04  1.6194280843743881e-04  1.0709942643950880e-04  9.4981810665414426e-05  1.3547190553957184e-04  1.0747979469372035e-04  1.1443415678748287e-04  1.2677980089139118e-03  6.8143216230677364e-04  8.6550815124231747e-04  2.0414782214233623e-04  1.5808812877966496e-04  2.1891686672861137e-04  1.7016722975707027e-02  1.6631058434655534e-02  8.3549508221841449e-04  1.1355437721745434e-03  9.6480786467006789e-04  7.0637145709997549e-03  6.0256357153128035e-03  6.3520756037433075e-03  1.7884212883303247e-02  1.7848159900524251e-02  1.7690927843028129e-02  1.7123971971323371e-02  1.7335864400585439e-02  1.7320238318428001e-02  2.3008698123776917e-03  8.7269308411648851e-03  1.6076401004257127e-03  1.6389563466315366e-03  1.8448270786961016e-03  1.9346665764588027e-02  1.9090978466703951e-02  1.9098554110746058e-02  1.7768510019545099e-04  1.5855024984073860e-04  1.5430413954607957e-04  2.6420042723942724e-03  1.8908315403871792e-02  2.5945646903330685e-04  1.8655428959442426e-02  1.8572271392186059e-02  1.8698036655172289e-02  3.1152467663309312e-04  4.5581133441089354e-04  3.9030220206478697e-04  1.8892090376984010e-02  1.8733392655386965e-02  1.8752514980317891e-02  1.7598615407292906e-02  1.7065461172996860e-02  3.7030368700603550e-04  4.1934085683490037e-04  4.4437991664622145e-04  1.5711171489424292e-02  1.5932259634068285e-02  1.6069210393439209e-02  1.0466642854844910e-02  1.0105197682132064e-02  1.0224080334834795e-02  1.7530925426971326e-02  6.9087599084295881e-03  8.2543616197814479e-05  7.4047765585996946e-05  7.7425425496502505e-05  1.9606721527216638e-04  2.1114592920939789e-04  2.3399509096643829e-04  1.6055355966372115e-02  1.5816965195905579e-02  1.5842100439493988e-02  8.7180548858978961e-03  2.4029996390263428e-04  6.7218596688467533e-03  1.7847881257077348e-02  1.7844385790927762e-02  1.7659156081557638e-02  6.2000019695500341e-03  1.7039876118503293e-02  1.7135950885335451e-02  1.7075672231818152e-02  1.7006920018869970e-04  1.8848297087702869e-04  2.1077252891093420e-04  1.2919771687831148e-02  1.3089234972766530e-02  1.8968631772805977e-03  4.7093035553991214e-03  4.4402364027128554e-03  2.6288500126760497e-04  1.6655578732067779e-02  1.6358435460560514e-02  9.9381514048453128e-03  9.1963427933281511e-03  1.0133129113978890e-02  3.8646042997019555e-05  4.3903393261979991e-05  3.3429165137510445e-05  1.7174275033530674e-02  2.9220381958921816e-05  1.4244249712766112e-02  1.9063508761575784e-04  2.0978816538913032e-04  1.7792403607375828e-04  1.5354196200137978e-02  1.5363995446892991e-02  1.5615086209218471e-02  1.3461694080280601e-02  1.2974463678446310e-02  1.3201050103681508e-02  1.8511226949066768e-02  1.9289912108592405e-02  1.8797064579327928e-02  1.9116877767003822e-02  1.6436344933343137e-02  1.2646409668205646e-02  1.2852773507098268e-02  1.2549946668332344e-02  8.2524478921187360e-05  7.4913647603089202e-05  6.2604376429999909e-05  1.9830914754558112e-02  1.9853616045095564e-02  2.0044479181329997e-02  1.9547366422562690e-02  1.2933759362803226e-02  5.8373609314253932e-03  2.8425679896006335e-03  1.2502448142068310e-03  1.1049453484978315e-03  1.3563757414400746e-03  1.0961911954674405e-03  9.9044793729008646e-04  9.1319112387008156e-04  6.3979260023945794e-05  2.9132672206016617e-04  2.8753764132315694e-04  2.6055752986735222e-04  1.7335923295395027e-02  1.7238918269670906e-02  1.7232930795949147e-02  4.9278756360538378e-04  2.3462227117250218e-04  2.4824293353903571e-04  2.1025012887125564e-04  1.7898250019776490e-02  1.5168759702029357e-02  1.5077029302396466e-02  1.4881332481766664e-02  1.2538770633435066e-02  1.2879870556913897e-02  1.2033687678238840e-02  4.1677677966459644e-04  3.5775756300250453e-04  4.7499132701128759e-04  2.0149252602766187e-02  1.7202327607955641e-02  1.7109680551615158e-02  7.2160849596914715e-03  1.6211638816937442e-02  5.2198875448374960e-04  3.1530930777999469e-04  3.4571180356119248e-04  1.2189539715780884e-03  3.3571427845277774e