<?xml version="1.0"?>
<VTKFile type="UnstructuredGrid"  version="0.1"  >
<UnstructuredGrid>
<Piece  NumberOfPoints="7876" NumberOfCells="15418">
<Points>
<DataArray  type="Float64"  NumberOfComponents="3"  format="ascii">0.4249163915692647 0.01631841845330215 0  0.4191401984187901 0.02506912326907745 0  0.4289726413756784 0.02612113468352234 0  0.2767857142851263 0 0  0.2857142857137213 0 0  0.2812248065388995 0.01038713515471629 0  0.2967416581061778 0.01586295423198182 0  0.3064949907319527 0.01146398069210909 0  0.3067328811979874 0.02020700170352196 0  0.4107142857140506 0 0  0.4158019546614985 0.01016411496813172 0  0.4057527942907854 0.009131608077795703 0  0.4196428571426455 0 0  0.4553405836246289 0.01922319952462705 0  0.4502185492061667 0.009048838576603154 0  0.4477073454460922 0.01802506369374225 0  0.4605954067271555 0.009479653905184819 0  0.408405027027524 0.01879365359558598 0  0.3327471483778357 0.0116169966389358 0  0.3411241715572504 0.008869738053334202 0  0.3373462348395153 0.02016803949949268 0  0.3449193622080142 0.01675939042031124 0  0.4560666881261162 0.03472713690621396 0  0.4569587136330783 0.04407065178190893 0  0.4645781729481331 0.03500647048889689 0  0.2904696492978588 0.008492270780567407 0  0.2720303507010008 0.008492270780552839 0  0.4838057761916891 0.01622211176217807 0  0.4891090527860916 0.02607095670293257 0  0.4795070208502278 0.02491741008730116 0  0.4211559635346557 0.03243305996231127 0  0.4173837681617427 0.01810252336731936 0  0.3660714285710758 0 0  0.3749999999996708 0 0  0.3705680309420432 0.008201070915841512 0  0.3965571177416637 0.01294782644931313 0  0.3992606773450048 0.02237662197021784 0  0.3902814058312629 0.01811759008946148 0  0.4285714285712405 0 0  0.4374999999998354 0 0  0.4334237600940167 0.009048611384771411 0  0.4927506564360022 0.01903999749114713 0  0.3839285714282657 0 0  0.3890635451104001 0.008240259980012892 0  0.3784196719804126 0.007481561376362831 0  0.5 0.01666666666663358 0  0.5 0.02499999999994162 0  0.4061453336374634 0.02935988719507548 0  0.348214285713886 0 0  0.3502294097567256 0.009878282563881815 0  0.3151800619601543 0.01577240943901992 0  0.3147970056337792 0.007167663975001442 0  0.4420347072790085 0.01336505252911134 0  0.4023625044156623 0.01617529801156756 0  0.4553571428570253 0 0  0.4642857142856202 0 0  0.4243709028119588 0.00727809114851148 0  0.339285714285291 0 0  0.4347701887808393 0.01827839080428576 0  0.4690441985935219 0.01369774138246527 0  0.4640479097518392 0.01898294713710774 0  0.4017857142854556 0 0  0.4764853757018662 0.01540483407615287 0  0.2995052226020027 0.006894767932474348 0  0.4900341868388961 0.009951128878779391 0  0.4840982638409085 0.006610041318770014 0  0.4729205872125939 0.02105941703877819 0  0.4732142857142151 0 0  0.4821428571428101 0 0  0.4775649102044346 0.008808120446456702 0  0.4125742734033346 0.02453769300732587 0  0.3833804528072166 0.01410165736595959 0  0.4385651146460528 0.0262691371443281 0  0.4479564019985485 0.02597444175282206 0  0.4418851568713737 0.02028872896899281 0  0.3214285714281011 0 0  0.3234529884967683 0.00981963478795464 0  0.441964285714133 0.00593177226273425 0  0.4545479790973798 0.02817736542779369 0  0.2946428571423163 0 0  0.2678571428565314 0 0  0.4687499999999168 0.006124543461934053 0  0.471051587301668 0.02916666666659636 0  0.4617881241986502 0.02696257176711717 0  0.3630195836433963 0.007314498443048009 0  0.3564355390309227 0.006586318444912457 0  0.4910714285714051 0 0  0.4434801203186426 0.03303318745330348 0  0.4464285714284303 0 0  0.3584266541327418 0.0137736503568923 0  0.353189797837348 0.02212837720969356 0  0.3622128364641971 0.02008188204889313 0  0.4950377542550979 0.00588984251567878 0  0.3571428571424809 0 0  0.3928571428568606 0 0  0.3756592117346809 0.01579685420922956 0  0.3661560270816275 0.01439607657884632 0  0.3124999999995061 0 0  0.4487581541241857 0.0401831692739316 0  0.3973214285711587 0.005726850543111202 0  0.4673699675652473 0.02404886747925368 0  0.3285511308344141 0.005598970213513247 0  0.3463168014750809 0.02366118255935359 0  0.3839988775683789 0.02112425438657994 0  0.3080357142852087 0.00468823177294991 0  0.2589285714279365 0 0  0.2631212781840686 0.007015406202879499 0  0.2544642857136414 0.004688231772951413 0  0.3035714285709112 0 0  0.3520041036871805 0.01556653824567161 0  0.330357142856696 0 0  0.449766933244412 0.03317884135793415 0  0.5 0 0  0.5 0.008333333333318314 0  0.3348214285709941 0.005424041358853929 0  0.4956127664449431 0.01249999999997595 0  0.2499999999993469 0 0  0.4135799531945678 0.03123450343901587 0  -0.3483934010538861 -0.08484572601162338 0  -0.3405461382146081 -0.08898624933820695 0  -0.3417924481853969 -0.07763657082743236 0  -0.3332476784868302 -0.0824270883713619 0  0.2567996470856309 -0.04922294709707099 0  0.2615747937984864 -0.03911046160981974 0  0.2521376976682361 -0.03841363604630693 0  0.054637677942483 -0.03729742734360458 0  0.05436260035962338 -0.02692271934564467 0  0.04463661516738563 -0.03088038922788267 0  0.3497788201090177 -0.05634354453637726 0  0.3595641271282136 -0.06032201280660569 0  0.352758530291081 -0.04973044372830221 0  0.2098214285708826 -0.0680245535714446 0  0.2080523097187477 -0.05736430134349749 0  0.2161944847954839 -0.05987720177343991 0  0.1562499999996104 -0.06802455357141236 0  0.1543621473378817 -0.05739769449168096 0  0.1626230562241844 -0.05987720177335167 0  0.1026785714283378 -0.06802455357138024 0  0.1009600666742392 -0.05725623391842437 0  0.1090516276528846 -0.05987720177326381 0  0.4250739134779294 -0.01636611546687173 0  0.4191401984187901 -0.02506912326907798 0  0.4289270730935473 -0.02616651097703634 0  0.3574929684756453 -0.08467052881401364 0  0.3495971130782787 -0.08894027855982083 0  0.3507649617023171 -0.0776545533923816 0  0.3421807533182299 -0.08242007174338836 0  -0.364195375281696 -0.07752661409515869 0  -0.3552158943569041 -0.07149093121919207 0  -0.3655234992416128 -0.06847466993218951 0  -0.3591668701667492 -0.06189478595243662 0  0.3606373524606276 -0.04978041428638336 0  -0.473214285714215 -9.4642857142843e-05 0  -0.4730227666837037 -0.01241000086364194 0  -0.480692751114715 -0.008686261694240785 0  -0.4642857142858134 -0.1 0  -0.4553571428572668 -0.1 0  -0.4593080882769673 -0.08996412173209711 0  -0.3797967819136183 -0.03738578705998116 0  -0.3681385240082739 -0.03862549181661451 0  -0.374695033849047 -0.02970785394378747 0  -0.05591153824889453 -0.0431906731188556 0  -0.05422620724093098 -0.03277576327902337 0  -0.06160704916669536 -0.0388666810947436 0  -0.3579290388552167 -0.03299711024421233 0  -0.3511587618288846 -0.03824584623932025 0  -0.3606178853656651 -0.0434495760022929 0  0.4464285714284227 -0.1 0  0.4517272929894228 -0.09131108300269909 0  0.441795309698206 -0.09351775874475561 0  -0.4487665655930046 -0.09062285871250526 0  0.4153231600403321 -0.03852724033262692 0  0.4093518174702223 -0.04653635014989516 0  0.4197302084077636 -0.0464972320878496 0  0.4155289380633008 -0.05459564888258193 0  -0.4091577341291897 -0.04099683595035052 0  -0.4126521431981424 -0.03063377637212985 0  -0.4026438309666618 -0.03566243898822315 0  -0.4684529737123475 -0.0933353029288663 0  0.0401785714284937 -0.03755580357136472 0  0.03402273666112312 -0.04588586420804546 0  0.03367296756169912 -0.03439832178484198 0  0.02946687579216508 -0.01596454978282951 0  0.03653571784904612 -0.02621357404028583 0  0.02606393101750729 -0.02680570898637964 0  0.02800076339752448 -0.04174385571828064 0  0.3521193950230455 -0.03165426445696349 0  0.3628415969967344 -0.02852520913904793 0  0.3531897978373481 -0.02212837720969365 0  0.5 -0.05000000000013693 0  0.4907947530291201 -0.0549261069648472 0  0.4947973826236248 -0.04603862612194198 0  -0.3006722516187019 -0.01763568561538729 0  -0.2987376612926834 -0.02625002330196932 0  -0.3077826827580848 -0.02574396878768244 0  -0.2471007355957109 -0.01762580385668408 0  -0.2451656855339359 -0.02624012756662907 0  -0.2542111585689936 -0.02573446572526089 0  -0.5 -0.05004999999986921 0  -0.4908161726402718 -0.05498570446636991 0  -0.4948001849464224 -0.04609864193470255 0  -0.4062466983123816 -0.0801823047824705 0  -0.4062015502484813 -0.06902352409926871 0  -0.4142619626950597 -0.07529486785913148 0  0.1993236104610122 -0.01757992825654926 0  0.2087527001113953 -0.01194673649748713 0  0.2086600875385965 -0.02179686059487411 0  0.2169125529780965 -0.01634093584027977 0  0.2812248065388995 -0.01038713515471634 0  -0.4537190309657517 -0.08069916752350936 0  0.1999433502546125 -0.07176318975065654 0  0.2075215913721811 -0.07749416617642088 0  0.1991921019977064 -0.08220157690947469 0  0.1463831089483894 -0.07174801047192089 0  0.1539514058302373 -0.07749247958987113 0  0.1456206734262603 -0.08220157690941128 0  -0.02220274940448204 -0.06751853199984598 0  -0.02522095404736771 -0.05634662002562152 0  -0.01611062711846687 -0.06028200653926674 0  0.2154315471628965 -0.05034722629242176 0  0.1625097416023082 -0.05030053833398988 0  0.1088055397687599 -0.05019100084701821 0  -0.4115423321035901 -0.08894416401770638 0  -0.401870214704991 -0.08982956529416655 0  -0.03294867798709752 -0.08220150445113555 0  -0.03221079889245967 -0.07171388574531948 0  -0.02415540196000217 -0.07745590803929434 0  -0.07651285144902761 -0.06761971677900167 0  -0.07261883747956149 -0.05716845246006973 0  -0.08209526422726057 -0.06029072500126204 0  -0.1301205554983779 -0.06754392764342201 0  -0.1262620718338697 -0.05711499167084012 0  -0.135668196533485 -0.0602966183959122 0  -0.1836929038960597 -0.06754630470732817 0  -0.1798364674641391 -0.05711851802389931 0  -0.1892411276447344 -0.0603025105862229 0  0.2011705100050896 -0.0272703567581236 0  0.1918651567922782 -0.02564729523777646 0  -0.3446955213474959 -0.06807979676882227 0  -0.3469144232955963 -0.05717567977018093 0  -0.3379050527161465 -0.05957052617368713 0  0.4301549400407204 -0.04942233138157544 0  0.4323008626877973 -0.04083405609921663 0  0.4239200288990855 -0.0400865251194
[...]
<PointData  Scalars="f_26"> 
<DataArray  type="Float64"  Name="f_26"  format="ascii">4.5087050611008501e-03  4.5730190155675180e-03  4.4932113049875400e-03  5.1444074978275441e-03  5.1255576582569257e-03  5.1380950869689959e-03  5.1097865399801733e-03  5.0811703039935251e-03  5.0932508171938175e-03  4.6044005718118321e-03  4.5747088842599407e-03  4.6489060522314409e-03  4.5338734953932047e-03  4.2203507821633951e-03  4.2552096008791037e-03  4.2976600098532918e-03  4.1436771043636828e-03  4.6432027255287247e-03  5.0084765988517603e-03  4.9784375612277826e-03  5.0043729853659711e-03  4.9734201189728256e-03  4.2537346481114563e-03  4.2756993263591272e-03  4.1648307712738681e-03  5.1163331353538382e-03  5.1571229258119229e-03  3.9111462871208678e-03  3.8958573151591648e-03  3.9758456456529759e-03  4.5743768131593938e-03  4.5739908478640220e-03  4.8744379763324521e-03  4.8309473601138905e-03  4.8567800583440984e-03  4.7158436111848969e-03  4.7133187530603469e-03  4.7621537379275887e-03  4.4563354008329914e-03  4.3731963907194188e-03  4.4218565734046051e-03  3.8506793081233793e-03  4.7823284777652898e-03  4.7574093881598565e-03  4.8166837427045623e-03  3.8240502642972901e-03  3.8469560761145052e-03  4.6804912916185324e-03  4.9493723843951872e-03  4.9465244458874111e-03  5.0637203222521241e-03  5.0566208100973117e-03  4.3462758784294743e-03  4.6817325899690910e-03  4.1877293262405886e-03  4.0890304862096771e-03  4.5005174653689559e-03  4.9816124575913561e-03  4.4245265807304800e-03  4.0584752503920072e-03  4.1252456009023223e-03  4.6693673895187521e-03  3.9822225936986940e-03  5.0945726360984347e-03  3.8474969080026502e-03  3.8891095327395053e-03  4.0338656029544340e-03  3.9895132570343722e-03  3.8974380756246021e-03  3.9568864646302897e-03  4.6230712509589527e-03  4.7963868994200633e-03  4.4061580134090970e-03  4.3134953043976430e-03  4.3605586961286821e-03  5.0367999013415515e-03  5.0341868515548435e-03  4.3355567127367567e-03  4.2511610994726964e-03  5.1056183320578839e-03  5.1643500730723891e-03  4.0477689958764683e-03  4.0765735309121033e-03  4.1706661141919293e-03  4.8913184430022802e-03  4.9192591720868548e-03  3.8220022226610338e-03  4.3761866299457317e-03  4.2830970472094495e-03  4.9173072230726741e-03  4.9504363672021306e-03  4.9097999184385486e-03  3.8116700889667138e-03  4.9138140525689239e-03  4.7290185799533143e-03  4.8396642010267044e-03  4.8840595647262827e-03  5.0616990078674266e-03  4.3459269827743011e-03  4.7035013285601510e-03  4.1018460893616033e-03  5.0170890549190647e-03  4.9795629108052176e-03  4.8036011815330883e-03  5.0732369170812903e-03  5.1868223908004179e-03  5.1767058919711933e-03  5.1981479278556146e-03  5.0841904811964990e-03  4.9455129754691698e-03  5.0108516843647135e-03  4.3141565296041968e-03  3.7883083906221303e-03  3.8056052785378010e-03  4.9975464840265448e-03  3.8231802583301149e-03  5.2108486082446514e-03  4.6309327868680255e-03  3.3228816310282975e-03  2.4866471902767577e-03  5.2715968074914825e-03  3.8879756782588394e-03  5.4035875952954705e-03  5.3158273912190055e-03  5.3455462828276247e-03  1.7320319889781933e-02  1.9595152362710186e-02  2.5141518011049972e-02  5.0689744304693602e-03  5.0343785901788077e-03  5.0275483724077493e-03  5.9037865568924187e-03  5.7925136100012006e-03  5.7502445929011785e-03  6.7276298889449894e-03  6.6011448628154369e-03  6.4628814273994233e-03  8.6990512603319012e-03  8.7507446538653139e-03  8.2959155536929900e-03  4.4832126461316051e-03  4.5393384567735708e-03  4.4525968579481800e-03  5.1651465175280784e-03  5.2376336212019209e-03  5.1669486530994714e-03  5.2423537961638587e-03  5.3858555048872693e-03  8.0598428192867229e-03  9.8945108035327061e-03  1.5401855963956268e-02  4.9877765971582250e-03  1.0000000000000002e+00  4.3070169809113984e-01  5.6110327604159549e-01  1.1872688196097585e-03  1.1834256054245812e-03  2.3189298553083293e-03  7.9834613899457799e-02  7.3972149963330000e-02  1.3466269409128978e-01  5.4504149417389812e-02  1.0958788403625028e-01  7.3674912821577745e-02  1.0879503182892103e-01  7.5235015077378523e-02  5.3282143389155545e-02  4.4611774475164130e-03  4.3648163694694504e-03  4.4865296085101151e-03  2.2221272482082152e-03  4.5892281595304651e-03  4.6545055189818009e-03  4.5657027176163436e-03  4.6210313267871696e-03  6.2705485791162252e-02  1.2602712231625085e-01  9.1339252001096966e-02  1.8829125395525769e-03  2.5361869844480949e-02  2.3929222801972322e-02  3.3053503072003110e-02  6.6639090044216628e-02  3.7010632199822063e-02  5.6702139651092748e-02  3.1382782713502547e-02  4.9737652474132789e-03  4.9169497745151641e-03  4.9489799988532909e-03  3.7949773011057642e-03  3.8383519066138416e-03  3.8035413407457230e-03  3.0127467035094485e-01  1.7066206469640138e-01  1.7732732837901174e-01  3.0133722844420996e-01  1.7072500797324638e-01  1.7741449877224696e-01  3.4726997804072381e-02  2.4422695278020639e-02  4.5383285449047232e-02  4.4194811851764170e-03  9.4320546408347521e-03  6.2690355017956407e-03  5.4871596937800986e-03  5.3995030234927754e-03  5.4498211699666559e-03  5.3725269158432327e-03  5.1459807239741164e-03  4.3024074345097679e-03  6.0573513573157619e-03  6.0447520858097886e-03  6.2013467893796389e-03  7.0293687441279756e-03  6.9207604515152624e-03  7.1932411112165988e-03  1.4339950321170539e-02  2.5200491730485278e-02  2.0813959870035460e-02  5.6515185393222530e-03  6.3126995726226175e-03  8.1836367177806173e-03  2.5075089205589471e-03  2.3434674890241212e-03  7.3664853262545901e-03  1.1191768968504065e-02  9.5996383278051933e-03  1.0916310565567040e-02  2.1575527725670899e-02  1.7403083817191255e-02  1.0450264258025839e-02  2.1264743040435439e-02  1.7092880304323113e-02  1.0407126338603658e-02  2.1263979011523097e-02  1.7070744421193725e-02  5.5411040020029393e-03  5.6054753613688883e-03  1.0064381054614982e-02  2.1132875109716433e-02  1.7913733759564811e-02  4.4736709546661143e-03  4.4367262063025100e-03  4.5153111233430469e-03  8.1945267903271252e-02  5.1196620493097278e-03  5.0870853437299593e-03  5.1037951628871564e-03  8.5889161257006047e-02  8.0363598807897230e-02  5.3737130287233571e-02  8.5909322450884437e-02  8.0377415490765172e-02  5.3754468040770310e-02  5.4301388254732897e-03  9.7988929052327759e-03  9.4616489828879113e-03  1.0029440751967735e-02  2.5780243977485368e-01  2.2960965109463560e-01  3.5480558612022539e-02  1.8509054668012542e-02  3.1453447726543279e-02  1.7309601753798937e-02  2.9757974948307259e-02  3.7704534073234428e-03  3.8201894969066693e-03  3.7966525399296307e-03  1.8489337318385204e-01  1.8708959937833339e-01  3.0092600712049056e-01  1.3684616667094219e-02  7.0715219832291646e-03  1.1809743448994903e-01  7.6419856047913043e-02  1.1808616699152057e-01  7.6459260302184293e-02  3.8596900431608380e-03  3.8411386323011099e-03  3.7992847652635201e-03  5.2310480785084405e-03  5.1729578352468402e-03  5.2268373877559235e-03  5.1814446677859770e-03  5.0105939656943099e-03  5.0210857979573016e-03  8.3736249176966510e-02  4.6280912804436629e-02  7.5347766362183974e-02  4.5619100217438339e-03  4.6393560501567788e-03  3.8547688082480802e-03  3.8949969808750504e-03  3.8559801780033466e-03  6.4915043143616942e-03  4.2769499409906313e-03  8.5326782480582668e-03  1.2185735863037117e-01  1.2192764721398522e-01  1.2044166182150807e-03  1.2162787734817247e-03  2.1884469350493658e-03  5.2539976063292653e-03  5.2999517904033632e-03  1.9740232406155948e-03  4.8229082828893204e-03  4.7984927932027610e-03  4.7624725379292144e-03  5.4695614473104774e-02  6.8127773509182310e-02  1.0110739872214798e-01  1.4345041042838758e-01  2.3096166552708363e-02  2.3658516935103756e-02  1.2840378807608428e-02  4.8700439204170517e-03  4.8320632580063213e-03  4.8320998596364864e-03  8.2489838965653615e-03  8.5347359155215890e-03  8.6165235135015703e-03  8.9246469526570674e-03  2.0445186464239203e-02  5.1960220581944456e-03  5.2337361208577883e-03  5.2056786708355243e-03  3.8116556422900152e-03  1.9745686405309642e-02  4.1767372205220796e-03  4.2365212276306956e-03  4.2626922216314625e-03  5.1754483272248150e-03  9.3229630335202977e-03  4.4562096344745755e-02  2.7104034739075827e-02  2.9924894493597731e-01  1.7384871223241441e-01  1.7672296446447597e-01  1.1254402859281620e-02  1.6076962723285040e-01  5.7332004190822732e-03  5.7450704517344499e-03  5.6363656797814273e-03  5.4998995296638119e-03  5.4939003208018342e-03  5.4187555774901182e-03  5.4105483490621614e-03  5.6508702647254348e-03  1.2976832243774345e-02  1.5143006003222208e-02  1.2119245213089436e-02  1.5557236353936006e-02  2.8784981824541950e-01  2.8794291711792536e-01  5.5694183282869259e-03  2.9051172069983128e-01  5.7323743634464111e-03  5.6787501758834335e-03  5.6171604158725859e-03  3.6670026394596392e-02  3.7016556121437894e-02  3.4524370512398171e-02  3.3049033792500765e-02  3.4360127319392718e-02  3.2798635418064541e-02  3.4446278538901129e-02  3.2833858407063016e-02  3.4411119625200597e-02  1.7743858492541478e-02  3.5270302482050514e-02  3.4415420504614512e-02  1.7774105599573778e-02  3.5267116574955133e-02  5.2538063976422739e-03  5.2098036009937182e-03  5.2774472079168654e-03  3.4481104773207191e-02  3.2772775315861022e-02  5.4403229520552732e-03  5.3549748149383045e-03  5.3622910385587837e-03  9.0094172400744348e-03  1.1868186967913624e-01  4.3578128967875869e-03  4.1218113785823586e-03  2.9065733480691750e-03  4.2959578525813939e-03  5.4144147710326190e-03  1.2909301039204790e-01  4.9804602162904247e-03  3.8989733901468714e-03  2.2665325581968911e-02  3.2379948826919391e-01  1.5933908550023104e-01  2.7120967684631409e-01  2.2660081835938338e-02  6.8936308746066401e-03  4.2348254383799003e-03  4.1264462095893161e-03  4.1262854769924910e-03  3.6110619805562842e-02  7.4426048152940287e-03  1.4305789624465019e-02  6.7735651164499387e-03  9.2736271381634334e-03  1.0000000000000002e+00  5.2059503253645312e-01  7.1391493181968801e-01  5.0217751204753285e-03  5.0882697203243326e-03  5.0141861710174028e-03  4.8413293157338116e-03  5.5063012791756478e-03  5.4286418418178824e-03  5.5093133447859525e-03  5.4546803609333552e-03  4.1482308415957882e-02  2.1920724538359585e-02  1.3126628530210559e-02  4.6212471187073749e-03  4.1590393400428978e-02  2.1914476010962219e-02  1.8909622213322894e-01  3.0989916829264730e-01  1.1593246187455096e-01  1.6731511969155630e-01  4.3426364918022396e-02  2.4674789753395522e-02  5.0617982666565598e-03  5.1070835730797496e-03  4.0650054109368549e-03  4.1766604153835717e-03  4.0803471624571083e-03  5.3378591297461343e-03  5.3078951799555513e-03  5.3856079077892948e-03  5.3642287099288479e-03  4.1812814146830954e-02  2.2624014351389287e-02  4.1420859170890834e-02  2.2306111221454164e-02  5.3358243207148725e-03  4.1429969270938553e-02  2.2297983765370739e-02  4.5777396761290763e-03  4.6441869089428210e-03  4.6902721348739468e-03  5.2318082814381845e-03  5.1905867410390952e-03  5.0111432872007424e-03  4.9791579646756359e-03  5.0075523320236483e-03  4.9742655373391049e-03  5.9489896316374810e-03  5.8117930421877012e-03  5.9620847937217640e-03  5.7183542471709956e-03  6.4890059300713263e-03  8.7683425727330712e-03  4.4359191245441710e-03  5.2332846513852838e-03  4.7403323389330464e-03  4.1763710304142387e-03  3.9490653743534700e-02  3.3064130802766656e-01  6.3152893979244706e-01  5.2741997600341921e-03  4.2147152521198484e-03  4.7910366963943287e-03  9.1729602983685182e-03  5.2805815022522748e-03  1.1016777947606785e-02  1.0836152747733464e-02  1.1963928863548278e-02  1.1720412591432508e-02  5.0928596507525195e-03  1.7006536425895342e-02  5.9247487310633180e-03  6.8371793455751593e-03  5.1019849605717631e-03  5.0698190777425257e-03  5.0303087598942212e-03  1.4569413982368936e-02  1.3913514285271265e-02  1.2783816550041768e-01  6.9137372911231107e-02  9.5686620040087350e-02  1.3881885258406999e-02  2.3308729286576221e-02  3.8486153966209033e-03  2.2235087711081949e-01  1.5339706987608778e-01  2.9867261543136731e-01  1.4379633539159437e-02  2.5575363570887205e-01  4.3329201761381705e-02  3.1651674001991809e-01  2.6665488656146924e-01  3.9062744297937999e-03  5.4639753152099846e-02  5.1220508320734166e-03  5.1642852140372274e-03  1.2000515912535077e-03  1.0000000000000000e+00  4.4991747087842549e-01  1.1595786794342189e-01  2.2148211987371536e-01  1.5331581449990397e-01  2.9832010751480709e-01  1.1588749093767062e-01  2.2151498581828508e-01  1.5327497865983700e-01  2.9831844471343200e-01  1.1589535455427179e-01  2.2150014236746385e-01  1.5326213988850837e-01  2.9836051586961326e-01  1.6898898854260665e-02  1.0256735914947288e-02  1.2047236097160210e-02  4.6548957619156651e-03  5.1308117514082020e-03  5.1619373024512612e-03  3.1592307800927932e-03  3.8663131873758944e-03  3.9070642672359200e-03  3.9687225625053705e-03  3.9795664131935578e-03  8.4858868009451457e-02  7.7514343608346511e-02  4.8784092833700075e-02  1.3950095833277157e-02  1.6234978022057481e-02  2.4051591808992405e-02  3.1254170675195307e-02  1.8479693634459039e-02  3.9472421828052459e-03  4.0058291579525753e-03  4.0398218528401907e-03  4.5340003888086683e-03  1.8029714964856086e-01  3.6145164678259329e-03  6.8008069620405179e-03  1.0922414667025527e-02  9.3850052722532773e-03  1.0103644318888817e-02  1.0000000000000002e+00  1.0000000000000000e+00  4.6624606175552613e-01  1.1587620763125669e-01  5.3577763074742152e-03  5.3355197263019356e-03  4.0469076311558504e-03  4.0463762102522964e-03  4.5504278760170143e-03  1.5839526304000298e-01  2.6878980739763503e-01  2.4088876260944328e-01  1.6686779575397487e-01  7.6400006827085781e-02  1.6689783307152425e-01  7.6395801725522475e-02  1.6752521465130282e-01  7.6674104068399182e-02  4.8796571323741133e-03  4.8441670295329082e-03  5.6170696923099495e-03  4.1184858325665191e-03  5.1411583793486756e-03  5.1911009355406672e-03  5.1449322448666379e-03  2.7164408814029607e-03  3.6576525803593937e-03  6.0945815578782652e-03  4.0014187651836574e-03  3.9649780512662413e-03  1.2645942428233792e-02  6.4202129368007383e-03  5.4197585256351884e-03  4.4899406397692944e-03  4.4737051257928004e-03  1.3365169474569128e-02  1.5377821315964112e-02  1.1747287603516525e-02  7.9310176793709747e-02  4.8538821371793385e-03  5.3889668791175871e-03  1.1343952591709471e-01  1.1338792407588927e-01  3.1299576556951841e-02  1.6437978367344269e-02  1.9270938371155771e-02  3.1698285589710468e-02  1.6768247338785239e-02  1.9460842193428071e-02  4.5541570933749212e-03  4.4598356477789074e-03  1.9191575406239236e-02  1.9875819399007268e-02  2.5857144117490873e-02  5.0698565941022823e-03  5.0930722998363499e-03  5.0540822985349542e-03  5.1801485554788850e-03  5.4985309178577496e-03  5.4363955418188755e-03  1.0000000000000000e+00  1.0000000000000000e+00  5.4529477505146240e-01  4.0138462248368086e-03  4.7047502746140517e-03  4.6931024305057502e-03  4.7490821684426027e-03  8.3384556519843448e-03  1.4431297336456501e-02  1.0485776623540765e-02  1.6983252404319346e-02  4.5753091758953639e-03  5.1705270694504630e-03  1.1530207730562854e-02  1.2417682673662254e-02  1.3288966191327238e-02  5.4284680086391221e-03  3.1548414377247938e-02  2.7557995055357335e-02  2.0256125127332694e-01  1.6417378001007524e-01  1.1541774906601139e-01  1.9721312185947550e-02  2.3860300725522224e-03  5.5561854491972443e-02  1.0022075915528929e-01  4.7267622200472554e-03  5.1351573530737894e-03  7.7104019497503090e-02  5.7111003537728975e-03  5.6206851909039839e-03  5.5783087202142517e-03  4.5642945620180425e-01  3.4256695210828893e-02  3.7722457103809205e-02  1.6969403777258715e-03  1.8874573151342806e-03  2.6872995616277120e-03  1.2489636236826483e-03  1.2620735593456014e-03  2.2277854725563004e-03  1.2015261579613253e-03  1.1901625693711687e-03  2.1839755822529289e-03  1.2185105464166662e-03  1.2105359012252049e-03  2.2026913101529867e-03  1.2163198449831269e-03  1.2176983971905037e-03  2.2054057068344552e-03  3.9146760360134003e-03  4.5684960694233291e-03  5.1671530305381517e-03  7.6367792814795825e-03  7.4158258492453043e-03  7.4662103557968096e-03  6.5671365264773534e-03  6.4443280841266571e-03  6.3996110016485142e-03  5.5223171437959817e-03  5.4508826391016741e-03  5.5040173372706098e-03  6.4084728320069661e-03  6.1706906920371944e-03  6.3182489250241339e-03  7.1002788955519614e-03  6.7082625127727561e-03  6.9200554229320900e-03  5.4224819484485218e-03  5.3690234781653473e-03  5.3367989681014898e-03  6.1433893127113351e-03  6.0603211327487135e-03  6.0026975977609635e-03  6.8579136420299476e-03  6.7053704343884380e-03  6.6813714685061212e-03  8.1309951572157823e-03  7.8733277959313758e-03  8.0004935352263971e-03  1.0000000000000000e+00  1.0000000000000000e+00  5.3443199714955081e-01  9.9999999999999989e-01  1.0000000000000002e+00  5.3442503006886288e-01  1.7118528063687102e-02  2.1128821505312093e-02  1.0501399729533723e-02  9.9999999999999989e-01  9.9999999999999978e-01  5.3436764069490128e-01  1.0000000000000000e+00  1.0000000000000002e+00  5.3704977449322533e-01  1.0000000000000002e+00  9.9999999999999989e-01  5.3523510596089097e-01  9.9999999999999989e-01  9.9999999999999989e-01  5.4122907554700217e-01  1.0000000000000002e+00  1.0000000000000000e+00  5.3844734746092504e-01  9.9999999999999989e-01  1.0000000000000002e+00  5.3518895342372852e-01  1.0000000000000002e+00  1.0000000000000000e+00  5.3843292482082150e-01  6.8859419196108124e-03  7.6489943848130999e-03  8.4123360346154731e-03  1.0000000000000000e+00  1.0000000000000000e+00  5.3361290866689259e-01  1.0000000000000000e+00  1.0000000000000000e+00  5.3361629835277846e-01  2.8484048684581141e-03  3.3379344820725506e-03  3.9515290413098102e-03  1.0000000000000002e+00  1.0000000000000000e+00  5.3630059153563003e-01  1.4445942867371971e-03  1.5660900501133191e-03  2.4260683459836042e-03  1.2027383636341138e-03  1.2313511911395253e-03  2.1980243270437370e-03  1.2012890306962989e-03  1.2036074091716312e-03  2.1833356518430568e-03  1.2162367518599247e-03  1.2177952780228847e-03  2.1967071381575323e-03  1.2171695558811342e-03  1.2258752712489066e-03  2.1804590123494019e-03  5.1970011830276995e-03  1.3712899972084283e-01  8.3940408147898812e-02  1.8211507182191933e-01  5.5229176301736351e-03  5.4316916950697385e-03  5.4614355297490560e-03  4.1247041000102317e-03  4.0631389530221378e-03  1.3541985052449067e-02  1.6570745025369534e-02  2.4010149942051900e-02  3.2057926992882686e-02  4.7828483369802546e-03  4.8783174245045826e-03  4.8169411648092157e-03  1.3961874953914179e-02  1.6629789806181506e-02  2.4099105863961686e-02  3.2079166029665318e-02  6.3551700703286286e-03  6.1658687813529898e-03  6.1477358495741624e-03  7.9012672128676558e-03  7.4743337346349992e-03  7.5608705267894366e-03  1.1092329338273793e-01  1.1082809369986646e-01  5.5185712609779849e-02  4.8409582676450227e-03  4.9061127813189468e-03  4.6544036409653690e-03  4.6225588263237158e-03  1.2416298855450498e-02  4.9136719075303387e-03  4.8325012177353891e-03  4.8192940320620882e-03  2.9212771010562932e-01  2.2076044632407605e-02  5.0740865759999709e-01  2.6834355138198340e-01  4.2021394826134983e-01  4.4075139954167673e-03  1.2194835112731606e-02  3.3743804298632585e-01  9.2989051198870704e-03  1.3170124519646460e-02  4.5727005911325065e-03  9.6541520407948545e-03  8.3787104269286115e-03  4.6547290561821499e-03  1.2088470925222219e-01  5.1653356834480578e-03  8.2488330628723693e-03  1.8819747760146360e-01  1.8366992447071895e-01  7.1319980406678551e-01  8.3276139639359946e-03  8.8702691603323603e-03  9.7529459923225304e-03  5.4837165653855843e-03  2.3140357021155487e-02  8.9021389943372657e-03  6.7623683422110481e-03  6.4700745677410037e-03  6.4446010844356428e-03  3.4460046368030815e-02  4.8559566188039499e-02  5.5993537165291299e-03  2.8693168802162672e-01  1.8990425977026845e-01  2.9432711965550007e-01  1.8565564030888804e-01  1.8990631976977540e-01  2.9431307106448462e-01  1.8559375217200569e-01  8.4942243441654505e-02  1.0278486373336243e-01  5.6355493922234365e-02  3.9100742395669673e-03  3.9123511538981647e-03  9.9999999999999978e-01  3.2888723430353005e-02  3.9734190654568478e