<?xml version="1.0"?>
<VTKFile type="UnstructuredGrid"  version="0.1"  >
<UnstructuredGrid>
<Piece  NumberOfPoints="7876" NumberOfCells="15418">
<Points>
<DataArray  type="Float64"  NumberOfComponents="3"  format="ascii">0.4249163915692647 0.01631841845330215 0  0.4191401984187901 0.02506912326907745 0  0.4289726413756784 0.02612113468352234 0  0.2767857142851263 0 0  0.2857142857137213 0 0  0.2812248065388995 0.01038713515471629 0  0.2967416581061778 0.01586295423198182 0  0.3064949907319527 0.01146398069210909 0  0.3067328811979874 0.02020700170352196 0  0.4107142857140506 0 0  0.4158019546614985 0.01016411496813172 0  0.4057527942907854 0.009131608077795703 0  0.4196428571426455 0 0  0.4553405836246289 0.01922319952462705 0  0.4502185492061667 0.009048838576603154 0  0.4477073454460922 0.01802506369374225 0  0.4605954067271555 0.009479653905184819 0  0.408405027027524 0.01879365359558598 0  0.3327471483778357 0.0116169966389358 0  0.3411241715572504 0.008869738053334202 0  0.3373462348395153 0.02016803949949268 0  0.3449193622080142 0.01675939042031124 0  0.4560666881261162 0.03472713690621396 0  0.4569587136330783 0.04407065178190893 0  0.4645781729481331 0.03500647048889689 0  0.2904696492978588 0.008492270780567407 0  0.2720303507010008 0.008492270780552839 0  0.4838057761916891 0.01622211176217807 0  0.4891090527860916 0.02607095670293257 0  0.4795070208502278 0.02491741008730116 0  0.4211559635346557 0.03243305996231127 0  0.4173837681617427 0.01810252336731936 0  0.3660714285710758 0 0  0.3749999999996708 0 0  0.3705680309420432 0.008201070915841512 0  0.3965571177416637 0.01294782644931313 0  0.3992606773450048 0.02237662197021784 0  0.3902814058312629 0.01811759008946148 0  0.4285714285712405 0 0  0.4374999999998354 0 0  0.4334237600940167 0.009048611384771411 0  0.4927506564360022 0.01903999749114713 0  0.3839285714282657 0 0  0.3890635451104001 0.008240259980012892 0  0.3784196719804126 0.007481561376362831 0  0.5 0.01666666666663358 0  0.5 0.02499999999994162 0  0.4061453336374634 0.02935988719507548 0  0.348214285713886 0 0  0.3502294097567256 0.009878282563881815 0  0.3151800619601543 0.01577240943901992 0  0.3147970056337792 0.007167663975001442 0  0.4420347072790085 0.01336505252911134 0  0.4023625044156623 0.01617529801156756 0  0.4553571428570253 0 0  0.4642857142856202 0 0  0.4243709028119588 0.00727809114851148 0  0.339285714285291 0 0  0.4347701887808393 0.01827839080428576 0  0.4690441985935219 0.01369774138246527 0  0.4640479097518392 0.01898294713710774 0  0.4017857142854556 0 0  0.4764853757018662 0.01540483407615287 0  0.2995052226020027 0.006894767932474348 0  0.4900341868388961 0.009951128878779391 0  0.4840982638409085 0.006610041318770014 0  0.4729205872125939 0.02105941703877819 0  0.4732142857142151 0 0  0.4821428571428101 0 0  0.4775649102044346 0.008808120446456702 0  0.4125742734033346 0.02453769300732587 0  0.3833804528072166 0.01410165736595959 0  0.4385651146460528 0.0262691371443281 0  0.4479564019985485 0.02597444175282206 0  0.4418851568713737 0.02028872896899281 0  0.3214285714281011 0 0  0.3234529884967683 0.00981963478795464 0  0.441964285714133 0.00593177226273425 0  0.4545479790973798 0.02817736542779369 0  0.2946428571423163 0 0  0.2678571428565314 0 0  0.4687499999999168 0.006124543461934053 0  0.471051587301668 0.02916666666659636 0  0.4617881241986502 0.02696257176711717 0  0.3630195836433963 0.007314498443048009 0  0.3564355390309227 0.006586318444912457 0  0.4910714285714051 0 0  0.4434801203186426 0.03303318745330348 0  0.4464285714284303 0 0  0.3584266541327418 0.0137736503568923 0  0.353189797837348 0.02212837720969356 0  0.3622128364641971 0.02008188204889313 0  0.4950377542550979 0.00588984251567878 0  0.3571428571424809 0 0  0.3928571428568606 0 0  0.3756592117346809 0.01579685420922956 0  0.3661560270816275 0.01439607657884632 0  0.3124999999995061 0 0  0.4487581541241857 0.0401831692739316 0  0.3973214285711587 0.005726850543111202 0  0.4673699675652473 0.02404886747925368 0  0.3285511308344141 0.005598970213513247 0  0.3463168014750809 0.02366118255935359 0  0.3839988775683789 0.02112425438657994 0  0.3080357142852087 0.00468823177294991 0  0.2589285714279365 0 0  0.2631212781840686 0.007015406202879499 0  0.2544642857136414 0.004688231772951413 0  0.3035714285709112 0 0  0.3520041036871805 0.01556653824567161 0  0.330357142856696 0 0  0.449766933244412 0.03317884135793415 0  0.5 0 0  0.5 0.008333333333318314 0  0.3348214285709941 0.005424041358853929 0  0.4956127664449431 0.01249999999997595 0  0.2499999999993469 0 0  0.4135799531945678 0.03123450343901587 0  -0.3483934010538861 -0.08484572601162338 0  -0.3405461382146081 -0.08898624933820695 0  -0.3417924481853969 -0.07763657082743236 0  -0.3332476784868302 -0.0824270883713619 0  0.2567996470856309 -0.04922294709707099 0  0.2615747937984864 -0.03911046160981974 0  0.2521376976682361 -0.03841363604630693 0  0.054637677942483 -0.03729742734360458 0  0.05436260035962338 -0.02692271934564467 0  0.04463661516738563 -0.03088038922788267 0  0.3497788201090177 -0.05634354453637726 0  0.3595641271282136 -0.06032201280660569 0  0.352758530291081 -0.04973044372830221 0  0.2098214285708826 -0.0680245535714446 0  0.2080523097187477 -0.05736430134349749 0  0.2161944847954839 -0.05987720177343991 0  0.1562499999996104 -0.06802455357141236 0  0.1543621473378817 -0.05739769449168096 0  0.1626230562241844 -0.05987720177335167 0  0.1026785714283378 -0.06802455357138024 0  0.1009600666742392 -0.05725623391842437 0  0.1090516276528846 -0.05987720177326381 0  0.4250739134779294 -0.01636611546687173 0  0.4191401984187901 -0.02506912326907798 0  0.4289270730935473 -0.02616651097703634 0  0.3574929684756453 -0.08467052881401364 0  0.3495971130782787 -0.08894027855982083 0  0.3507649617023171 -0.0776545533923816 0  0.3421807533182299 -0.08242007174338836 0  -0.364195375281696 -0.07752661409515869 0  -0.3552158943569041 -0.07149093121919207 0  -0.3655234992416128 -0.06847466993218951 0  -0.3591668701667492 -0.06189478595243662 0  0.3606373524606276 -0.04978041428638336 0  -0.473214285714215 -9.4642857142843e-05 0  -0.4730227666837037 -0.01241000086364194 0  -0.480692751114715 -0.008686261694240785 0  -0.4642857142858134 -0.1 0  -0.4553571428572668 -0.1 0  -0.4593080882769673 -0.08996412173209711 0  -0.3797967819136183 -0.03738578705998116 0  -0.3681385240082739 -0.03862549181661451 0  -0.374695033849047 -0.02970785394378747 0  -0.05591153824889453 -0.0431906731188556 0  -0.05422620724093098 -0.03277576327902337 0  -0.06160704916669536 -0.0388666810947436 0  -0.3579290388552167 -0.03299711024421233 0  -0.3511587618288846 -0.03824584623932025 0  -0.3606178853656651 -0.0434495760022929 0  0.4464285714284227 -0.1 0  0.4517272929894228 -0.09131108300269909 0  0.441795309698206 -0.09351775874475561 0  -0.4487665655930046 -0.09062285871250526 0  0.4153231600403321 -0.03852724033262692 0  0.4093518174702223 -0.04653635014989516 0  0.4197302084077636 -0.0464972320878496 0  0.4155289380633008 -0.05459564888258193 0  -0.4091577341291897 -0.04099683595035052 0  -0.4126521431981424 -0.03063377637212985 0  -0.4026438309666618 -0.03566243898822315 0  -0.4684529737123475 -0.0933353029288663 0  0.0401785714284937 -0.03755580357136472 0  0.03402273666112312 -0.04588586420804546 0  0.03367296756169912 -0.03439832178484198 0  0.02946687579216508 -0.01596454978282951 0  0.03653571784904612 -0.02621357404028583 0  0.02606393101750729 -0.02680570898637964 0  0.02800076339752448 -0.04174385571828064 0  0.3521193950230455 -0.03165426445696349 0  0.3628415969967344 -0.02852520913904793 0  0.3531897978373481 -0.02212837720969365 0  0.5 -0.05000000000013693 0  0.4907947530291201 -0.0549261069648472 0  0.4947973826236248 -0.04603862612194198 0  -0.3006722516187019 -0.01763568561538729 0  -0.2987376612926834 -0.02625002330196932 0  -0.3077826827580848 -0.02574396878768244 0  -0.2471007355957109 -0.01762580385668408 0  -0.2451656855339359 -0.02624012756662907 0  -0.2542111585689936 -0.02573446572526089 0  -0.5 -0.05004999999986921 0  -0.4908161726402718 -0.05498570446636991 0  -0.4948001849464224 -0.04609864193470255 0  -0.4062466983123816 -0.0801823047824705 0  -0.4062015502484813 -0.06902352409926871 0  -0.4142619626950597 -0.07529486785913148 0  0.1993236104610122 -0.01757992825654926 0  0.2087527001113953 -0.01194673649748713 0  0.2086600875385965 -0.02179686059487411 0  0.2169125529780965 -0.01634093584027977 0  0.2812248065388995 -0.01038713515471634 0  -0.4537190309657517 -0.08069916752350936 0  0.1999433502546125 -0.07176318975065654 0  0.2075215913721811 -0.07749416617642088 0  0.1991921019977064 -0.08220157690947469 0  0.1463831089483894 -0.07174801047192089 0  0.1539514058302373 -0.07749247958987113 0  0.1456206734262603 -0.08220157690941128 0  -0.02220274940448204 -0.06751853199984598 0  -0.02522095404736771 -0.05634662002562152 0  -0.01611062711846687 -0.06028200653926674 0  0.2154315471628965 -0.05034722629242176 0  0.1625097416023082 -0.05030053833398988 0  0.1088055397687599 -0.05019100084701821 0  -0.4115423321035901 -0.08894416401770638 0  -0.401870214704991 -0.08982956529416655 0  -0.03294867798709752 -0.08220150445113555 0  -0.03221079889245967 -0.07171388574531948 0  -0.02415540196000217 -0.07745590803929434 0  -0.07651285144902761 -0.06761971677900167 0  -0.07261883747956149 -0.05716845246006973 0  -0.08209526422726057 -0.06029072500126204 0  -0.1301205554983779 -0.06754392764342201 0  -0.1262620718338697 -0.05711499167084012 0  -0.135668196533485 -0.0602966183959122 0  -0.1836929038960597 -0.06754630470732817 0  -0.1798364674641391 -0.05711851802389931 0  -0.1892411276447344 -0.0603025105862229 0  0.2011705100050896 -0.0272703567581236 0  0.1918651567922782 -0.02564729523777646 0  -0.3446955213474959 -0.06807979676882227 0  -0.3469144232955963 -0.05717567977018093 0  -0.3379050527161465 -0.05957052617368713 0  0.4301549400407204 -0.04942233138157544 0  0.4323008626877973 -0.04083405609921663 0  0.4239200288990855 -0.0400865251194
[...]
<PointData  Scalars="f_26"> 
<DataArray  type="Float64"  Name="f_26"  format="ascii">1.7503131878703011e-02  1.7762433709028708e-02  1.7442104713485486e-02  2.0157322650198366e-02  2.0067713686611463e-02  2.0125385924493925e-02  1.9990907037140512e-02  1.9863200856722964e-02  1.9913532740562703e-02  1.7886665103276401e-02  1.7767664605666929e-02  1.8066370566463701e-02  1.7603271569172012e-02  1.6350382669331000e-02  1.6488977115586490e-02  1.6658893890798401e-02  1.6044298567091289e-02  1.8044205267217246e-02  1.9545313342466921e-02  1.9417512844535769e-02  1.9526870004455261e-02  1.9396069095779230e-02  1.6485212105505943e-02  1.6574353227044765e-02  1.6130384588037620e-02  2.0024249441009539e-02  2.0216680107345366e-02  1.5118360099416807e-02  1.5057584086370524e-02  1.5376181444629357e-02  1.7769026599433531e-02  1.7765539352238732e-02  1.8983523896706642e-02  1.8804836456271443e-02  1.8911213448066819e-02  1.8337178764773730e-02  1.8327919818839161e-02  1.8525495187746117e-02  1.7292473611548079e-02  1.6959967200733297e-02  1.7154715421854531e-02  1.4877579871044194e-02  1.8606323040451594e-02  1.8505355005491355e-02  1.8746819316914059e-02  1.4771584759823916e-02  1.4862738660363641e-02  1.8196169910832016e-02  1.9294868989944185e-02  1.9283167873292727e-02  1.9784500256644993e-02  1.9754853579308323e-02  1.6852772922211826e-02  1.8199538013511717e-02  1.6219925906435780e-02  1.5826819905125904e-02  1.7469714755492968e-02  1.9430913611928044e-02  1.7166051980542298e-02  1.5704960893938899e-02  1.5971164371004230e-02  1.8148519350914580e-02  1.5401345332138132e-02  1.9924827680809755e-02  1.4865155468596592e-02  1.5030912411933812e-02  1.5607161196904785e-02  1.5430736573381535e-02  1.5064451929759509e-02  1.5300549135920922e-02  1.7963842120926918e-02  1.8664464583753551e-02  1.7093394290264973e-02  1.6722829156117464e-02  1.6910382408409693e-02  1.9667998989149456e-02  1.9656519101502432e-02  1.6809662882811351e-02  1.6474171873421074e-02  1.9975161165297774e-02  2.0252986897037629e-02  1.5662380114956437e-02  1.5777812713771568e-02  1.6152832490481522e-02  1.9053561763957439e-02  1.9169401105754165e-02  1.4764353922004727e-02  1.6974398962453507e-02  1.6600198623480677e-02  1.9161433305378710e-02  1.9299472430269454e-02  1.9130469177194361e-02  1.4722808090303239e-02  1.9146482336493083e-02  1.8389782395688080e-02  1.8841418885619292e-02  1.9023831512812478e-02  1.9777263838021693e-02  1.6854482243766063e-02  1.8286719674409545e-02  1.5878210684862754e-02  1.9582715472311413e-02  1.9421561367710723e-02  1.8694505245033015e-02  1.9828801713812974e-02  2.0360594671400230e-02  2.0311520625284588e-02  2.0415408567229183e-02  1.9877852243770443e-02  1.9279021708033556e-02  1.9555664894777693e-02  1.6726405431555177e-02  1.4630297210975729e-02  1.4698500182933434e-02  1.9498878317620188e-02  1.4768266819138804e-02  2.0476776477366721e-02  1.7996506137300045e-02  3.4294849721579921e-03  2.6006168257163621e-03  5.3803145149161971e-03  4.0052514961105646e-03  2.1274332306782467e-02  2.0896640087467899e-02  2.1039669705259542e-02  6.1802497003735045e-02  6.7157798235526991e-02  7.9041807505429537e-02  1.9786448298467370e-02  1.9641526396705571e-02  1.9614849296131796e-02  2.3519287562333766e-02  2.3056989543367788e-02  2.2850024023973192e-02  2.7215773461650300e-02  2.6714820606009829e-02  2.6084806540413192e-02  3.5545065287263283e-02  3.5822723429370158e-02  3.3968006756544926e-02  1.7400650719367666e-02  1.7626435578746213e-02  1.7279121727283901e-02  2.0180738057437340e-02  2.0482031706056697e-02  2.0190163988734827e-02  2.0504772253899253e-02  5.4747482238389975e-03  8.1527758026323956e-03  9.9755477322143789e-03  1.5484434071984559e-02  1.9449505544371443e-02  1.0000000000000000e+00  4.3070222395919000e-01  5.6110354714049882e-01  1.2119801094722365e-03  1.2137620890748204e-03  2.3413966610884673e-03  7.9877833598593892e-02  7.4027810179811804e-02  1.3470393703600214e-01  5.7598597203299066e-02  1.1239691042037310e-01  7.5855165202666913e-02  1.0885712014807580e-01  7.5310288903230799e-02  5.3349997164344680e-02  1.7335998312121598e-02  1.6947983909950781e-02  1.7434268782862798e-02  2.2514732624328467e-03  1.7828620091270935e-02  1.8092441234347369e-02  1.7735731667693214e-02  1.7959661993145287e-02  6.2729461866338973e-02  1.2604326337231897e-01  9.1363816431514061e-02  1.9020924031047861e-03  7.8197033686449313e-02  7.3327268161549497e-02  9.2041395867572831e-02  1.5114799944787913e-01  1.0125763121612048e-01  1.3012392246119298e-01  8.5585156072328222e-02  1.9393427873289189e-02  1.9157815012036755e-02  1.9291237826488720e-02  1.4666319872900837e-02  1.4840240785832820e-02  1.4699238967590374e-02  3.0139443569423452e-01  1.7081255998765255e-01  1.7745834554935216e-01  3.0157783487554168e-01  1.7101385270235711e-01  1.7767567872399934e-01  3.4728960023516116e-02  2.4425398006491957e-02  4.5385027329425960e-02  4.4738485330134995e-03  9.4777616875311617e-03  6.3131998858665774e-03  2.1794813044289978e-02  2.1386435712391690e-02  2.1601600418851171e-02  2.1245141459606060e-02  2.0158058403301468e-02  4.3233378465376933e-03  2.4201647731161423e-02  2.4119374355387399e-02  2.4805759220473747e-02  2.8517206138394244e-02  2.8010470956334577e-02  2.9165190566918894e-02  2.9422068863355633e-02  3.9585139833119377e-02  4.0031572659578178e-02  2.2435196460468050e-02  2.5464232921368138e-02  3.3556961373077988e-02  2.5644137603337909e-03  2.4092196736656564e-03  1.7766145070982928e-02  2.1969071080226291e-02  2.3200402747232254e-02  1.2730324058549496e-02  2.3367566285082728e-02  1.8657414338492904e-02  1.0756651516108277e-02  2.1646471131306039e-02  1.7420142477562458e-02  1.0635602055005980e-02  2.1573988675022748e-02  1.7350474991756810e-02  2.2017306969112683e-02  2.2328369379448175e-02  1.0165700027640334e-02  2.1226065423521349e-02  1.8018610084687772e-02  1.7367826033462701e-02  1.7218198203022811e-02  1.7532462361680688e-02  8.6118880271843043e-02  2.0031057126839991e-02  1.9886910296430586e-02  1.9955738451745003e-02  8.6109855438966570e-02  8.0610714943627537e-02  5.3968610349610070e-02  8.6018399395455344e-02  8.0506706953200113e-02  5.3879531196460405e-02  2.1410684789889327e-02  3.9642781896865917e-02  3.8190336915423805e-02  4.0303875499437695e-02  2.5781419016311985e-01  2.2961890514898814e-01  3.5504884591005481e-02  1.8538673123236340e-02  3.1483412273331256e-02  1.7345653448296628e-02  8.8550001932184319e-02  1.4562789056733338e-02  1.4760503085207734e-02  1.4665686044698034e-02  1.8489397180560013e-01  1.8709031057679779e-01  3.0092643796316815e-01  1.3733634654012242e-02  7.1286863342678265e-03  1.1827387082550050e-01  7.6586050302204625e-02  1.1840578324024302e-01  7.6755851085245783e-02  1.4920015412146135e-02  1.4848547460883836e-02  1.4680362414384161e-02  2.0490179019406723e-02  2.0243037893097750e-02  2.0466052737602707e-02  2.0271659759074998e-02  1.9548516001778832e-02  1.9590659504942549e-02  8.3737700261771561e-02  4.6282869427328614e-02  7.5349027534729954e-02  1.7715883154632583e-02  1.8027424726242330e-02  1.4912653953442757e-02  1.5074965058329301e-02  1.4915867005287334e-02  6.4968538832686782e-03  4.2840139845441993e-03  8.5374508975960238e-03  1.2209528746920074e-01  1.2204529960521245e-01  1.2856410434377661e-03  1.3047981886696669e-03  2.2687132090781345e-03  2.0623998902368927e-02  2.0812832736679412e-02  2.0480559256514795e-03  1.8772514312666192e-02  1.8674025031175889e-02  1.8526791197159557e-02  5.4700025590614598e-02  6.8130224313342744e-02  1.0111020485541344e-01  1.4345200593678226e-01  2.3102811010880825e-02  2.3667528112850871e-02  1.2849720087306858e-02  1.8964766627134848e-02  1.8809223382285824e-02  1.8809233881822762e-02  3.3591412766002512e-02  3.4667681030077488e-02  3.5118693685453332e-02  3.6268469009039676e-02  6.8539252616233962e-02  2.0387423841159987e-02  2.0546727067215748e-02  2.0415688573471695e-02  1.4735253399215553e-02  1.9748465245432344e-02  1.6177632809503163e-02  1.6414819380368251e-02  1.6519988466299686e-02  2.0288943056355310e-02  3.7793834804964968e-02  1.1651112962328601e-01  8.3198809302115581e-02  3.0663032589081263e-01  1.8319275225915491e-01  1.8231355168309069e-01  1.1292466263197369e-02  1.6078833313736063e-01  2.2676509828549723e-02  2.2709236720352584e-02  2.2249245247776307e-02  2.1613888368810501e-02  2.1578775792623052e-02  2.1267026569121297e-02  2.1224377731589531e-02  2.2294451264700876e-02  1.2989238025085089e-02  5.5910150266982726e-02  4.7175602093733497e-02  5.6634996043138541e-02  2.8795618862264699e-01  2.8816399280219113e-01  2.2183380581475835e-02  2.9425817078594113e-01  2.2618718345612483e-02  2.2377252204220870e-02  2.2126497349046748e-02  5.8810567321932246e-02  5.3833029042926778e-02  3.5558871646303905e-02  3.4432657816718643e-02  3.4780199758640849e-02  3.3224240759520948e-02  3.4804306531796121e-02  3.3193650448203355e-02  3.4703522011536883e-02  1.7989724533727863e-02  3.5549806032867060e-02  3.4605290175125987e-02  1.7948587059355110e-02  3.5443920452834912e-02  2.0569718642248880e-02  2.0380420350058270e-02  2.0664340908292507e-02  3.4583937294540484e-02  3.2866601880929130e-02  2.1417356763672235e-02  2.1057060424241013e-02  2.1077602888235836e-02  3.6442922516050517e-02  1.1869411606306428e-01  1.6924144716793078e-02  1.5957884844943218e-02  2.9400077629516447e-03  4.3319062750246471e-03  5.4408339532529409e-03  1.2914357528148285e-01  1.9422795882226920e-02  1.5087963400282327e-02  2.2914179625974394e-02  3.2382008957998104e-01  1.5937004825204645e-01  2.7123913028087415e-01  2.2826196096672070e-02  6.8995938380318400e-03  1.6427449155568163e-02  1.5997772239326986e-02  1.5993726060372398e-02  3.6172336110827874e-02  7.4707634975413892e-03  1.4330838209938496e-02  6.8075951825122280e-03  9.3089508153605012e-03  1.0000000000000000e+00  5.2059662093698900e-01  7.1391550330282993e-01  1.9588906348690191e-02  1.9862330445507191e-02  1.9558058465840363e-02  1.8848299358363785e-02  2.1835352596319597e-02  2.1471705517627844e-02  2.1824704296532979e-02  2.1562993585574810e-02  4.1752419809389547e-02  2.2155863463350006e-02  4.9757070855144234e-02  1.7954915227136339e-02  4.1752186409963539e-02  2.2068436611728155e-02  1.8913719990588670e-01  3.0993447019192605e-01  1.1601191911308677e-01  1.6737818336627427e-01  5.4433754826671739e-02  3.5205803258781532e-02  1.9758971538862927e-02  1.9946558683424053e-02  1.5737810444757458e-02  1.6181974213446897e-02  1.5796917405089896e-02  2.1051622894364783e-02  2.0901492682531764e-02  2.1250308629501002e-02  2.1137595810570647e-02  4.3748734634256603e-02  2.5095236198208314e-02  4.1908709675906847e-02  2.2728059090532368e-02  2.1084510881879147e-02  4.1834048799551278e-02  2.2617195148521799e-02  1.7789755222329607e-02  1.8055042822410501e-02  1.8242839791945544e-02  2.0516820970255156e-02  2.0340139798258459e-02  1.9555149772523484e-02  1.9419559721209862e-02  1.9537923071745785e-02  1.9397843046114249e-02  2.3883191949080593e-02  2.3294363694659963e-02  2.3980255866105797e-02  2.2748938645121342e-02  2.6262602660617231e-02  3.5915719873855147e-02  1.7229644643762268e-02  2.0475708205022349e-02  1.8438276925754945e-02  1.6178722915886908e-02  3.9571471038850441e-02  3.3064243752638095e-01  6.3152932009525242e-01  2.0731025985785440e-02  1.6350890730651713e-02  1.8641786708132824e-02  3.7440573350348588e-02  2.0718949111279496e-02  4.4051965794048416e-02  4.3173076398104873e-02  4.6961500686964940e-02  4.5823409739184071e-02  1.9881639207469159e-02  2.8890604067995217e-02  2.3635166589448236e-02  2.7723131880731704e-02  1.9921306921919370e-02  1.9787167088185217e-02  1.9624276838026151e-02  1.6960851730900534e-02  1.4284059002971082e-02  1.2786483302238852e-01  6.9169443071708941e-02  9.5720963760633992e-02  1.4141485211893493e-02  2.3392577102732549e-02  3.8750235484873567e-03  2.2241919953688816e-01  1.5348527962684574e-01  2.9874260163191563e-01  1.4470904755287776e-02  2.5575476173493394e-01  1.1310546681270403e-01  3.1651726195137964e-01  2.6665568197112954e-01  1.5106984346767825e-02  5.4641945477771105e-02  2.0047686530401676e-02  2.0246662715382523e-02  1.2366974204389661e-03  1.0000000000000000e+00  4.4994015971861367e-01  1.1707133700334249e-01  2.2244913624908400e-01  1.5418799943939612e-01  2.9910432830829520e-01  1.1650372507040777e-01  2.2214563740899776e-01  1.5388977473389637e-01  2.9889129904984940e-01  1.1637988780712974e-01  2.2196724919684740e-01  1.5372144686269062e-01  2.9876335854512615e-01  1.6916683758168155e-02  1.0278711517413093e-02  1.2063613908471308e-02  1.8092712979821114e-02  2.0068351178502614e-02  2.0205113802538793e-02  3.1750608779160285e-03  1.4942408443023962e-02  1.5105780346082258e-02  1.5368669642366179e-02  1.5408374056094947e-02  8.5284106897935766e-02  7.7905565877314592e-02  4.9153219868862737e-02  1.4188295504123422e-02  1.6492762438371934e-02  2.4335840296990947e-02  3.1573154757107959e-02  1.8754461337709749e-02  1.5271454428211696e-02  1.5507515587718063e-02  1.5639689464636543e-02  1.7606090273884815e-02  1.8029812128083503e-01  3.6240007838521538e-03  6.8086270097354913e-03  4.2910542723882013e-02  3.7801407407273252e-02  4.0331303818904742e-02  9.9999999999999989e-01  9.9999999999999989e-01  5.4651916108670728e-01  1.1776529691094845e-01  2.1015638058160927e-02  2.0913078223372600e-02  1.5683475212648488e-02  1.5676639528349707e-02  1.7670301557234529e-02  1.5839781210644938e-01  2.6879195090812796e-01  2.4090909551327885e-01  1.6738282458710474e-01  7.6876269967639341e-02  1.6756286806424348e-01  7.6977084482748204e-02  1.6884334429372558e-01  7.8251091437735537e-02  1.9005071055894801e-02  1.8860817491759427e-02  2.2334050199084965e-02  1.5954232717959014e-02  2.0095424660938156e-02  2.0306898978576710e-02  2.0115924207619287e-02  2.8136518160367173e-03  3.7460914269261928e-03  2.4547544745271314e-02  1.5481699581784029e-02  1.5338877747481794e-02  1.2717025785466450e-02  6.4987481120278396e-03  2.1450603585822230e-02  1.7439585613824565e-02  1.7372416888554586e-02  5.0205999445539433e-02  5.5859366686304285e-02  4.5563772450920373e-02  7.9328046522391157e-02  1.8898660516397877e-02  2.1281576531343705e-02  1.1371943794331316e-01  1.1353584913494144e-01  3.1681326988835724e-02  1.6727617768105257e-02  1.9587649557889285e-02  3.2285983189878395e-02  1.7375044236913075e-02  2.0190873435272944e-02  1.7700401801645733e-02  1.7322192336152790e-02  4.3932507921479166e-02  5.1093380277480435e-02  5.8000182816883634e-02  1.9808289069762085e-02  1.9904380440197725e-02  1.9737860964814332e-02  2.0247739505019274e-02  2.1721550768600405e-02  2.1460077245490764e-02  9.9999999999999989e-01  9.9999999999999989e-01  5.4531642952311077e-01  4.1125606601303709e-03  1.8291514145448832e-02  1.8244868076898176e-02  1.8471225787167020e-02  1.4318687612700482e-02  2.0098652438704036e-02  1.8332365478882815e-02  2.5474780156075599e-02  1.7782844285889318e-02  2.0201729782067804e-02  4.3806657761220981e-02  4.5339091483946423e-02  4.8675213889311515e-02  2.1535168711186995e-02  3.1566719515056588e-02  2.7581243781729825e-02  2.0256496343878999e-01  1.6417982907357584e-01  1.1542354282784296e-01  1.9761706644740508e-02  2.4283130917382447e-03  5.5578642532996936e-02  1.0023097608794868e-01  1.8384811514756527e-02  2.0092973428843107e-02  7.7113062097195373e-02  2.2654994316981404e-02  2.2240986679998308e-02  2.2071353784366469e-02  4.5643090269657854e-01  3.4260089573060447e-02  3.7726813387021788e-02  3.0456852692981504e-03  3.7387241915386488e-03  4.0585859452158708e-03  1.4290512501854151e-03  1.5089470310402169e-03  2.4167398974217842e-03  1.2905296036604310e-03  1.2761303699918862e-03  2.2971576792462306e-03  1.3395880030118946e-03  1.3273742731029908e-03  2.3389907685206998e-03  1.3437727917852357e-03  1.3466477865269715e-03  2.3369480293577633e-03  1.1365121143162739e-02  1.3984401368662403e-02  1.3594101611443607e-02  3.0923568273790766e-02  3.0002503117102106e-02  3.0274863623652459e-02  2.6357550048219255e-02  2.5816591643504024e-02  2.5654849680094249e-02  2.1990445110453567e-02  2.1649191355663646e-02  2.1895260714229176e-02  2.6074357860774614e-02  2.5006001493620714e-02  2.5666039688624041e-02  2.9070667603852088e-02  2.7395353659894043e-02  2.8309699450657855e-02  2.1256224000299744e-02  2.1029244657580191e-02  2.0898993966773940e-02  2.4475957574934287e-02  2.4102133877836950e-02  2.3875391477587833e-02  2.7624542238862751e-02  2.6962354965927846e-02  2.6897157673047564e-02  3.2932895888049915e-02  3.1893427610057500e-02  3.2495627953359273e-02  1.0000000000000000e+00  1.0000000000000000e+00  5.3492492686585902e-01  1.0000000000000000e+00  1.0000000000000000e+00  5.3478538861416647e-01  1.7175444891883797e-02  2.1189815888940942e-02  1.0567446593134511e-02  9.9999999999999989e-01  1.0000000000000000e+00  5.3460773666426864e-01  1.0000000000000000e+00  1.0000000000000000e+00  5.3801990404292788e-01  9.9999999999999989e-01  1.0000000000000002e+00  5.3537233000071138e-01  9.9999999999999989e-01  1.0000000000000002e+00  5.4367988665245881e-01  1.0000000000000000e+00  1.0000000000000000e+00  5.3888314986708274e-01  1.0000000000000000e+00  1.0000000000000000e+00  5.3525360612216777e-01  1.0000000000000000e+00  9.9999999999999989e-01  5.3874852758907510e-01  2.3522813886738811e-02  2.6864522988219810e-02  2.7729263937448817e-02  1.0000000000000000e+00  1.0000000000000000e+00  5.3381545540090258e-01  1.0000000000000002e+00  1.0000000000000000e+00  5.3372594345983015e-01  7.3063032490751495e-03  9.1421109886081139e-03  8.8164755233829835e-03  1.0000000000000000e+00  9.9999999999999989e-01  5.3634763342520186e-01  2.1389767108741919e-03  2.5362820479989971e-03  3.1149198612938785e-03  1.3105833551480311e-03  1.3661693456635765e-03  2.3246509775642025e-03  1.3009514835091802e-03  1.2972468525623117e-03  2.3050659442368105e-03  1.3436196936666750e-03  1.3425813758152648e-03  2.3349360994052788e-03  1.3391623375287557e-03  1.3509675642328918e-03  2.3039126843365319e-03  2.0351517894578404e-02  1.3713284426845423e-01  8.3944615915518300e-02  1.8211685784225481e-01  2.1729581417393194e-02  2.1339250912386799e-02  2.1475521760043657e-02  1.5981850729500025e-02  1.5739314214191648e-02  1.3659311534855235e-02  1.6699552257057208e-02  2.4131216681809703e-02  3.2189651292985524e-02  1.8616409789007478e-02  1.9004078089698138e-02  1.8756171027599772e-02  1.4144303166534764e-02  1.6829048610264827e-02  2.4301589510492293e-02  3.2303904302747113e-02  2.5581484664951446e-02  2.4741099906991908e-02  2.4690055549478306e-02  3.2303091413727426e-02  3.0504954066624727e-02  3.0913968684781235e-02  1.1156895080309545e-01  1.1134795853595889e-01  5.5238477935934470e-02  1.8850882774844271e-02  1.9113461709504592e-02  1.8105118666498370e-02  1.7974320763398867e-02  4.6923796024099539e-02  1.9151700630429033e-02  1.8823762390545042e-02  1.8767774217675184e-02  2.9213113662918566e-01  7.2369123215192691e-02  5.0741525648844654e-01  2.6835819600542193e-01  4.2022543365632237e-01  1.7097332458864280e-02  4.7868377613987032e-02  3.3744204005550471e-01  3.7830745972701071e-02  5.0603135324077383e-02  1.7778215237962105e-02  3.9227380443847985e-02  8.3988569150049760e-03  1.8101981513387131e-02  1.2129437625656266e-01  2.0189873778172055e-02  3.3682499473239744e-02  1.9133097002271782e-01  1.8550133927193782e-01  7.1321009744193942e-01  2.9961561688355173e-02  3.2631238988839684e-02  3.4519019225216940e-02  2.1554306294002835e-02  2.3158310904210944e-02  3.6294531548044032e-02  2.7598058244601740e-02  2.6324170065611902e-02  2.6186399442948722e-02  3.4469780267947170e-02  4.8566058922421093e-02  2.2178104750429431e-02  2.8874748660474214e-01  1.9062966994627636e-01  2.9499029118604175e-01  1.8634423062426964e-01  1.9047382990758091e-01  2.9481635888572355e-01  1.8613151725440988e-01  8.5304626525719907e-02  1.0317486392949569e-01  5.6715883410691156e-02  1.5127877723405500e-02  1.5134617192019729e-02  1.0000000000000000e+00  3.2933227275933515e-02  3.9784443552033241e