<?xml version="1.0"?>
<VTKFile type="UnstructuredGrid"  version="0.1"  >
<UnstructuredGrid>
<Piece  NumberOfPoints="16512" NumberOfCells="32424">
<Points>
<DataArray  type="Float64"  NumberOfComponents="3"  format="ascii">-25 4.9 0  25 4.9 0  25 -4.9 0  -25 -4.9 0  -10 0 0  10 0 0  -24.80000000000034 4.9 0  -24.60000000000068 4.9 0  -24.40000000000101 4.9 0  -24.20000000000135 4.9 0  -24.00000000000169 4.9 0  -23.80000000000203 4.9 0  -23.60000000000237 4.9 0  -23.40000000000271 4.9 0  -23.20000000000304 4.9 0  -23.00000000000338 4.9 0  -22.80000000000372 4.9 0  -22.60000000000406 4.9 0  -22.40000000000439 4.9 0  -22.20000000000473 4.9 0  -22.00000000000507 4.9 0  -21.80000000000541 4.9 0  -21.60000000000575 4.9 0  -21.40000000000608 4.9 0  -21.20000000000642 4.9 0  -21.00000000000676 4.9 0  -20.8000000000071 4.9 0  -20.60000000000744 4.9 0  -20.40000000000777 4.9 0  -20.20000000000811 4.9 0  -20.00000000000845 4.9 0  -19.80000000000879 4.9 0  -19.60000000000912 4.9 0  -19.40000000000946 4.9 0  -19.2000000000098 4.9 0  -19.00000000001039 4.9 0  -18.80000000001108 4.9 0  -18.60000000001231 4.9 0  -18.40000000001371 4.9 0  -18.2000000000154 4.9 0  -18.00000000001716 4.9 0  -17.80000000001892 4.9 0  -17.60000000002067 4.9 0  -17.40000000002243 4.9 0  -17.20000000002419 4.9 0  -17.00000000002595 4.9 0  -16.80000000002771 4.9 0  -16.60000000002947 4.9 0  -16.40000000003123 4.9 0  -16.20000000003299 4.9 0  -16.00000000003472 4.9 0  -15.80000000003612 4.9 0  -15.60000000003748 4.9 0  -15.40000000003853 4.9 0  -15.20000000003958 4.9 0  -15.00000000004063 4.9 0  -14.80000000004168 4.9 0  -14.60000000004273 4.9 0  -14.40000000004377 4.9 0  -14.20000000004482 4.9 0  -14.00000000004587 4.9 0  -13.80000000004692 4.9 0  -13.60000000004797 4.9 0  -13.40000000004902 4.9 0  -13.20000000005007 4.9 0  -13.00000000005111 4.9 0  -12.80000000005216 4.9 0  -12.60000000005321 4.9 0  -12.40000000005426 4.9 0  -12.20000000005531 4.9 0  -12.00000000005636 4.9 0  -11.80000000005741 4.9 0  -11.60000000005846 4.9 0  -11.4000000000595 4.9 0  -11.20000000006055 4.9 0  -11.0000000000616 4.9 0  -10.80000000006265 4.9 0  -10.6000000000637 4.9 0  -10.40000000006475 4.9 0  -10.2000000000658 4.9 0  -10.00000000006684 4.9 0  -9.800000000067891 4.9 0  -9.60000000006894 4.9 0  -9.400000000069989 4.9 0  -9.200000000070727 4.9 0  -9.00000000007142 4.9 0  -8.800000000071787 4.9 0  -8.600000000072125 4.9 0  -8.400000000072467 4.9 0  -8.200000000072805 4.9 0  -8.000000000073143 4.9 0  -7.800000000073481 4.9 0  -7.60000000007382 4.9 0  -7.400000000074154 4.9 0  -7.200000000074493 4.9 0  -7.000000000074831 4.9 0  -6.800000000075173 4.9 0  -6.600000000075511 4.9 0  -6.400000000075849 4.9 0  -6.200000000076187 4.9 0  -6.000000000076525 4.9 0  -5.800000000076867 4.9 0  -5.600000000077205 4.9 0  -5.400000000077544 4.9 0  -5.200000000077882 4.9 0  -5.00000000007822 4.9 0  -4.800000000078558 4.9 0  -4.600000000078897 4.9 0  -4.400000000079235 4.9 0  -4.200000000079573 4.9 0  -4.000000000079908 4.9 0  -3.800000000080246 4.9 0  -3.600000000080588 4.9 0  -3.400000000080926 4.9 0  -3.200000000081264 4.9 0  -3.000000000081606 4.9 0  -2.800000000081944 4.9 0  -2.600000000082282 4.9 0  -2.40000000008262 4.9 0  -2.200000000082959 4.9 0  -2.000000000083297 4.9 0  -1.800000000083635 4.9 0  -1.600000000083973 4.9 0  -1.400000000084312 4.9 0  -1.20000000008465 4.9 0  -1.000000000084988 4.9 0  -0.8000000000853262 4.9 0  -0.6000000000856645 4.9 0  -0.4000000000860027 4.9 0  -0.2000000000863409 4.9 0  -8.667910833537462e-11 4.9 0  0.1999999999129827 4.9 0  0.3999999999126409 4.9 0  0.5999999999123027 4.9 0  0.7999999999119716 4.9 0  0.9999999999116262 4.9 0  1.199999999911295 4.9 0  1.39999999991095 4.9 0  1.599999999910619 4.9 0  1.799999999910273 4.9 0  1.999999999909939 4.9 0  2.199999999909597 4.9 0  2.399999999909262 4.9 0  2.599999999908921 4.9 0  2.799999999908582 4.9 0  2.999999999908244 4.9 0  3.199999999907906 4.9 0  3.399999999907564 4.9 0  3.599999999907226 4.9 0  3.799999999906888 4.9 0  3.999999999906549 4.9 0  4.199999999906218 4.9 0  4.399999999905873 4.9 0  4.599999999905542 4.9 0  4.799999999905197 4.9 0  4.999999999904865 4.9 0  5.19999999990452 4.9 0  5.399999999904182 4.9 0  5.599999999903844 4.9 0  5.799999999903505 4.9 0  5.999999999903167 4.9 0  6.199999999902829 4.9 0  6.399999999902491 4.9 0  6.599999999902153 4.9 0  6.799999999902379 4.9 0  6.999999999902752 4.9 0  7.199999999903724 4.9 0  7.399999999904807 4.9 0  7.59999999990589 4.9 0  7.799999999906966 4.9 0  7.999999999908056 4.9 0  8.199999999909132 4.9 0  8.399999999910214 4.9 0  8.59999999991129 4.9 0  8.79999999991238 4.9 0  8.999999999913456 4.9 0  9.199999999914539 4.9 0  9.399999999915622 4.9 0  9.599999999916704 4.9 0  9.79999999991778 4.9 0  9.99999999991887 4.9 0  10.19999999991995 4.9 0  10.39999999992103 4.9 0  10.59999999992212 4.9 0  10.79999999992319 4.9 0  10.99999999992428 4.9 0  11.19999999992536 4.9 0  11.39999999992644 4.9 0  11.59999999992752 4.9 0  11.7999999999286 4.9 0  11.99999999992968 4.9 0  12.19999999993077 4.9 0  12.39999999993184 4.9 0  12.59999999993293 4.9 0  12.79999999993401 4.9 0  12.99999999993509 4.9 0  13.19999999993617 4.9 0  13.39999999993726 4.9 0  13.59999999993834 4.9 0  13.79999999993942 4.9 0  13.99999999994051 4.9 0  14.19999999994158 4.9 0  14.39999999994266 4.9 0  14.59999999994375 4.9 0  14.79999999994483 4.9 0  14.99999999994591 4.9 0  15.199999999947 4.9 0  15.39999999994807 4.9 0  15.59999999994915 4.9 0  15.79999999995024 4.9 0  15.99999999995132 4.9 0  16.1999999999524 4.9 0  16.39999999995349 4.9 0  16.59999999995456 4.9 0  16.79999999995565 4.9 0  16.99999999995674 4.9 0  17.19999999995781 4.9 0  17.39999999995889 4.9 0  17.59999999995997 4.9 0  17.79999999996106 4.9 0  17.99999999996214 4.9 0  18.19999999996322 4.9 0  18.3999999999643 4.9 0  18.59999999996538 4.9 0  18.79999999996646 4.9 0  18.99999999996755 4.9 0  19.19999999996863 4.9 0  19.39999999996971 4.9 0  19.59999999997079 4.9 0  19.79999999997187 4.9 0  19.99999999997296 4.9 0  20.19999999997404 4.9 0  20.39999999997512 4.9 0  20.5999999999762 4.9 0  20.79999999997728 4.9 0  20.99999999997836 4.9 0  21.19999999997945 4.9 0  21.39999999998052 4.9 0  21.59999999998161 4.9 0  21.79999999998269 4.9 0  21.99999999998377 4.9 0  22.19999999998485 4.9 0  22.39999999998594 4.9 0  22.59999999998701 4.9 0  22.7999999999881 4.9 0  22.99999999998919 4.9 0  23.19999999999026 4.9 0  23.39999999999135 4.9 0  23.59999999999243 4.9 0  23.79999999999351 4.9 0  23.99999999999459 4.9 0  24.19999999999568 4.9 0  24.39999999999675 4.9 0  24.59999999999783 4.9 0  24.79999999999892 4.9 0  25 4.700000000000415 0  25 4.500000000000868 0  25 4.300000000001562 0  25 4.100000000001831 0  25 3.900000000002072 0  25 3.700000000002459 0  25 3.500000000003038 0  25 3.300000000003653 0  25 3.100000000004294 0  25 2.900000000004838 0  25 2.700000000005293 0  25 2.500000000005957 0  25 2.300000000006508 0  25 2.100000000007153 0  25 1.900000000007722 0  25 1.700000000008417 0  25 1.500000000008938 0  25 1.30000000000963 0  25 1.100000000010154 0  25 0.9000000000108268 0  25 0.7000000000114559 0  25 0.5000000000119762 0  25 0.3000000000126564 0  25 0.1000000000131926 0  25 -0.09999999998679243 0  25 -0.2999999999874587 0  25 -0.4999999999878586 0  25 -0.6999999999884441 0  25 -0.899999999988804 0  25 -1.099999999989427 0  25 -1.299999999989749 0  25 -1.499999999990411 0  25 -1.69999999999073 0  25 -1.899999999991396 0  25 -2.099999999991715 0  25 -2.299999999992381 0  25 -2.499999999993047 0  25 -2.699999999993714 0  25 -2.899999999994227 0  25 -3.099999999994698 0  25 -3.299999999994673 0  25 -3.499999999995339 0  25 -3.699999999996004 0  25 -3.89999999999667 0  25 -4.099999999997335 0  25 -4.299999999998002 0  25 -4.499999999998668 0  25 -4.699999999999335 0  24.80000000000034 -4.9 0  24.60000000000068 -4.9 0  24.40000000000101 -4.9 0  24.20000000000135 -4.9 0  24.00000000000169 -4.9 0  23.80000000000203 -4.9 0  23.60000000000237 -4.9 0  23.40000000000271 -4.9 0  23.20000000000304 -4.9 0  23.00000000000338 -4.9 0  22.80000000000372 -4.9 0  22.60000000000406 -4.9 0  22.40000000000439 -4.9 0  22.20000000000473 -4.9 0  22.00000000000507 -4.9 0  21.80000000000541 -4.9 0  21.60000000000575 -4.9 0  21.40000000000608 -4.9 0  21.20000000000642 -4.9 0  21.00000000000676 -4.9 0  20.8000000000071 -4.9 0  20.60000000000744 -4.9 0  20.40000000000777 -4.9 0  20.20000000000811 -4.9 0  20.00000000000845 -4.9 0  19.80000000000879 -4.9 0  19.60000000000912 -4.9 0  19.40000000000946 -4.9 0  19.2000000000098 -4.9 0  19.00000000001039 -4.9 0  18.80000000001108 -4.9 0  18.60000000001231 -4.9 0  18.40000000001371 -4.9 0  18.2000000000154 -4.9 0  18.00000000001716 -4.9 0  17.80000000001892 -4.9 0  17.60000000002067 -4.9 0  17.40000000002243 -4.9 0  17.20000000002419 -4.9 0  17.00000000002595 -4.9 0  16.80000000002771 -4.9 0  16.60000000002947 -4.9 0  16.40000000003123 -4.9 0  16.20000000003299 -4.9 0  16.00000000003472 -4.9 0  15.80000000003612 -4.9 0  15.60000000003748 -4.9 0  15.40000000003853 -4.9 0  15.20000000003958 -4.9 0  15.00000000004063 -4.9 0  14.80000000004168 -4.9 0  14.60000000004273 -4.9 0  14.40000000004377 -4.9 0  14.20000000004482 -4.9 0  14.00000000004587 -4.9 0  13.80000000004692 -4.9 0  13.60000000004797 -4.9 0  13.40000000004902 -4.9 0  13.20000000005007 -4.9 0  13.00000000005111 -4.9 0  12.80000000005216 -4.9 0  12.60000000005321 -4.9 0  12.40000000005426 -4.9 0  12.20000000005531 -4.9 0  12.00000000005636 -4.9 0  11.80000000005741 -4.9 0  11.60000000005846 -4.9 0  11.4000000000595 -4.9 0  11.20000000006055 -4.9 0  11.0000000000616 -4.9 0  10.80000000006265 -4.9 0  10.6000000000637 -4.9 0  10.40000000006475 -4.9 0  10.2000000000658 -4.9 0  10.00000000006684 -4.9 0  9.800000000067891 -4.9 0  9.60000000006894 -4.9 0  9.400000000069989 -4.9 0  9.200000000070727 -4.9 0  9.00000000007142 -4.9 0  8.800000000071787 -4.9 0  8.600000000072125 -4.9 0  8.400000000072467 -4.9 0  8.200000000072805 -4.9 0  8.000000000073143 -4.9 
[...]
<PointData  Vectors="f_7"> 
<DataArray  type="Float64"  Name="f_7"  NumberOfComponents="3" format="ascii">3.4523400177886729e-04 8.9500000000000007e-04 0.0000000000000000e+00  -3.4508646394691375e-04 8.9500000000000007e-04 0.0000000000000000e+00  0.0000000000000000e+00 0.0000000000000000e+00 0.0000000000000000e+00  0.0000000000000000e+00 0.0000000000000000e+00 0.0000000000000000e+00  4.7299031487627612e-05 4.3841872937727504e-04 0.0000000000000000e+00  -4.8129032639025468e-05 4.2441785443458565e-04 0.0000000000000000e+00  3.3981864881768142e-04 8.9500000000000007e-04 0.0000000000000000e+00  3.3437031060614791e-04 8.9500000000000007e-04 0.0000000000000000e+00  3.2889363689830571e-04 8.9500000000000007e-04 0.0000000000000000e+00  3.2332188987977426e-04 8.9500000000000007e-04 0.0000000000000000e+00  3.1772550133011971e-04 8.9500000000000007e-04 0.0000000000000000e+00  3.1205785839499796e-04 8.9500000000000007e-04 0.0000000000000000e+00  3.0635708510129384e-04 8.9500000000000007e-04 0.0000000000000000e+00  3.0059514888006991e-04 8.9500000000000007e-04 0.0000000000000000e+00  2.9481640075585877e-04 8.9500000000000007e-04 0.0000000000000000e+00  2.8898411925847896e-04 8.9500000000000007e-04 0.0000000000000000e+00  2.8311941207999347e-04 8.9500000000000007e-04 0.0000000000000000e+00  2.7724687944712443e-04 8.9500000000000007e-04 0.0000000000000000e+00  2.7131171411520896e-04 8.9500000000000007e-04 0.0000000000000000e+00  2.6537370313244523e-04 8.9500000000000007e-04 0.0000000000000000e+00  2.5942343198476176e-04 8.9500000000000007e-04 0.0000000000000000e+00  2.5346364462177463e-04 8.9500000000000007e-04 0.0000000000000000e+00  2.4745949792874213e-04 8.9500000000000007e-04 0.0000000000000000e+00  2.4146261537554020e-04 8.9500000000000007e-04 0.0000000000000000e+00  2.3547211094036450e-04 8.9500000000000007e-04 0.0000000000000000e+00  2.2945234178708407e-04 8.9500000000000007e-04 0.0000000000000000e+00  2.2343958993876161e-04 8.9500000000000007e-04 0.0000000000000000e+00  2.1742990119528546e-04 8.9500000000000007e-04 0.0000000000000000e+00  2.1143017118506653e-04 8.9500000000000007e-04 0.0000000000000000e+00  2.0544368283925089e-04 8.9500000000000007e-04 0.0000000000000000e+00  1.9943354324462347e-04 8.9500000000000007e-04 0.0000000000000000e+00  1.9344046232155950e-04 8.9500000000000007e-04 0.0000000000000000e+00  1.8746300645002066e-04 8.9500000000000007e-04 0.0000000000000000e+00  1.8148940240052554e-04 8.9500000000000007e-04 0.0000000000000000e+00  1.7552599806692083e-04 8.9500000000000007e-04 0.0000000000000000e+00  1.6957393270613798e-04 8.9500000000000007e-04 0.0000000000000000e+00  1.6362492378264678e-04 8.9500000000000007e-04 0.0000000000000000e+00  1.5768515670189023e-04 8.9500000000000007e-04 0.0000000000000000e+00  1.5175577130183601e-04 8.9500000000000007e-04 0.0000000000000000e+00  1.4583683720226364e-04 8.9500000000000007e-04 0.0000000000000000e+00  1.3990778893498322e-04 8.9500000000000007e-04 0.0000000000000000e+00  1.3398841291025721e-04 8.9500000000000007e-04 0.0000000000000000e+00  1.2806638883858343e-04 8.9500000000000007e-04 0.0000000000000000e+00  1.2214484633847055e-04 8.9500000000000007e-04 0.0000000000000000e+00  1.1621315825747384e-04 8.9500000000000007e-04 0.0000000000000000e+00  1.1027585888914642e-04 8.9500000000000007e-04 0.0000000000000000e+00  1.0432890470061448e-04 8.9500000000000007e-04 0.0000000000000000e+00  9.8365860864021762e-05 8.9500000000000007e-04 0.0000000000000000e+00  9.2382934817564284e-05 8.9500000000000007e-04 0.0000000000000000e+00  8.6377752743302481e-05 8.9500000000000007e-04 0.0000000000000000e+00  8.0345017649729718e-05 8.9500000000000007e-04 0.0000000000000000e+00  7.4281618589027551e-05 8.9500000000000007e-04 0.0000000000000000e+00  6.8186596327517166e-05 8.9500000000000007e-04 0.0000000000000000e+00  6.2049219399961023e-05 8.9500000000000007e-04 0.0000000000000000e+00  5.5866766453474008e-05 8.9500000000000007e-04 0.0000000000000000e+00  4.9644402170458165e-05 8.9500000000000007e-04 0.0000000000000000e+00  4.3369840410347397e-05 8.9500000000000007e-04 0.0000000000000000e+00  3.7046088343000976e-05 8.9500000000000007e-04 0.0000000000000000e+00  3.0670556127241252e-05 8.9500000000000007e-04 0.0000000000000000e+00  2.4223214678271211e-05 8.9500000000000007e-04 0.0000000000000000e+00  1.7750476842727343e-05 8.9500000000000007e-04 0.0000000000000000e+00  1.1219878901161936e-05 8.9500000000000007e-04 0.0000000000000000e+00  4.6425323167242588e-06 8.9500000000000007e-04 0.0000000000000000e+00  -1.9823124461062011e-06 8.9500000000000007e-04 0.0000000000000000e+00  -8.6309669596985253e-06 8.9500000000000007e-04 0.0000000000000000e+00  -1.5313237179593359e-05 8.9500000000000007e-04 0.0000000000000000e+00  -2.1960579663868158e-05 8.9500000000000007e-04 0.0000000000000000e+00  -2.8603382963177118e-05 8.9500000000000007e-04 0.0000000000000000e+00  -3.5208600086974326e-05 8.9500000000000007e-04 0.0000000000000000e+00  -4.1763961218549796e-05 8.9500000000000007e-04 0.0000000000000000e+00  -4.8237404423130719e-05 8.9500000000000007e-04 0.0000000000000000e+00  -5.4543728586811111e-05 8.9500000000000007e-04 0.0000000000000000e+00  -6.0680829812452383e-05 8.9500000000000007e-04 0.0000000000000000e+00  -6.6555646343223601e-05 8.9500000000000007e-04 0.0000000000000000e+00  -7.2229774985486079e-05 8.9500000000000007e-04 0.0000000000000000e+00  -7.7681481882752265e-05 8.9500000000000007e-04 0.0000000000000000e+00  -8.2757338310157118e-05 8.9500000000000007e-04 0.0000000000000000e+00  -8.7386260033430233e-05 8.9500000000000007e-04 0.0000000000000000e+00  -9.1614980109877380e-05 8.9500000000000007e-04 0.0000000000000000e+00  -9.5489925630514572e-05 8.9500000000000007e-04 0.0000000000000000e+00  -9.8780904836852661e-05 8.9500000000000007e-04 0.0000000000000000e+00  -1.0166086918233160e-04 8.9500000000000007e-04 0.0000000000000000e+00  -1.0402187416517895e-04 8.9500000000000007e-04 0.0000000000000000e+00  -1.0582178439103273e-04 8.9500000000000007e-04 0.0000000000000000e+00  -1.0713965771296920e-04 8.9500000000000007e-04 0.0000000000000000e+00  -1.0799675830536831e-04 8.9500000000000007e-04 0.0000000000000000e+00  -1.0836263548952743e-04 8.9500000000000007e-04 0.0000000000000000e+00  -1.0825539744541278e-04 8.9500000000000007e-04 0.0000000000000000e+00  -1.0769847459997065e-04 8.9500000000000007e-04 0.0000000000000000e+00  -1.0673321810833819e-04 8.9500000000000007e-04 0.0000000000000000e+00  -1.0544788129214861e-04 8.9500000000000007e-04 0.0000000000000000e+00  -1.0385707582331172e-04 8.9500000000000007e-04 0.0000000000000000e+00  -1.0193310519499967e-04 8.9500000000000007e-04 0.0000000000000000e+00  -9.9729588114283828e-05 8.9500000000000007e-04 0.0000000000000000e+00  -9.7355023175725111e-05 8.9500000000000007e-04 0.0000000000000000e+00  -9.4801660808480664e-05 8.9500000000000007e-04 0.0000000000000000e+00  -9.2100488083262353e-05 8.9500000000000007e-04 0.0000000000000000e+00  -8.9230750414908487e-05 8.9500000000000007e-04 0.0000000000000000e+00  -8.6285970429720785e-05 8.9500000000000007e-04 0.0000000000000000e+00  -8.3269228946419188e-05 8.9500000000000007e-04 0.0000000000000000e+00  -8.0213016011438512e-05 8.9500000000000007e-04 0.0000000000000000e+00  -7.7092228596552318e-05 8.9500000000000007e-04 0.0000000000000000e+00  -7.3973610392435318e-05 8.9500000000000007e-04 0.0000000000000000e+00  -7.0857603338584147e-05 8.9500000000000007e-04 0.0000000000000000e+00  -6.7745214014454849e-05 8.9500000000000007e-04 0.0000000000000000e+00  -6.4650476578803181e-05 8.9500000000000007e-04 0.0000000000000000e+00  -6.1589373877426342e-05 8.9500000000000007e-04 0.0000000000000000e+00  -5.8569160484095218e-05 8.9500000000000007e-04 0.0000000000000000e+00  -5.5563197283121402e-05 8.9500000000000007e-04 0.0000000000000000e+00  -5.2613659020581581e-05 8.9500000000000007e-04 0.0000000000000000e+00  -4.9712421247553943e-05 8.9500000000000007e-04 0.0000000000000000e+00  -4.6862987015100361e-05 8.9500000000000007e-04 0.0000000000000000e+00  -4.4066654959261354e-05 8.9500000000000007e-04 0.0000000000000000e+00  -4.1312174902651553e-05 8.9500000000000007e-04 0.0000000000000000e+00  -3.8609095039539785e-05 8.9500000000000007e-04 0.0000000000000000e+00  -3.5957710131274152e-05 8.9500000000000007e-04 0.0000000000000000e+00  -3.3353083086547920e-05 8.9500000000000007e-04 0.0000000000000000e+00  -3.0795849049416466e-05 8.9500000000000007e-04 0.0000000000000000e+00  -2.8271630971601683e-05 8.9500000000000007e-04 0.0000000000000000e+00  -2.5792307523530034e-05 8.9500000000000007e-04 0.0000000000000000e+00  -2.3347831505247874e-05 8.9500000000000007e-04 0.0000000000000000e+00  -2.0940127999585672e-05 8.9500000000000007e-04 0.0000000000000000e+00  -1.8561388567696930e-05 8.9500000000000007e-04 0.0000000000000000e+00  -1.6212693717525586e-05 8.9500000000000007e-04 0.0000000000000000e+00  -1.3889121268868711e-05 8.9500000000000007e-04 0.0000000000000000e+00  -1.1587388408425998e-05 8.9500000000000007e-04 0.0000000000000000e+00  -9.3052446616104206e-06 8.9500000000000007e-04 0.0000000000000000e+00  -7.0390395705280497e-06 8.9500000000000007e-04 0.0000000000000000e+00  -4.7850608340994079e-06 8.9500000000000007e-04 0.0000000000000000e+00  -2.5391638433972356e-06 8.9500000000000007e-04 0.0000000000000000e+00  -3.0009208657205099e-07 8.9500000000000007e-04 0.0000000000000000e+00  1.9352974292394543e-06 8.9500000000000007e-04 0.0000000000000000e+00  4.1722524057606694e-06 8.9500000000000007e-04 0.0000000000000000e+00  6.4124389997699914e-06 8.9500000000000007e-04 0.0000000000000000e+00  8.6600537405803046e-06 8.9500000000000007e-04 0.0000000000000000e+00  1.0917345172590809e-05 8.9500000000000007e-04 0.0000000000000000e+00  1.3189391298295110e-05 8.9500000000000007e-04 0.0000000000000000e+00  1.5479752844326947e-05 8.9500000000000007e-04 0.0000000000000000e+00  1.7793649669402958e-05 8.9500000000000007e-04 0.0000000000000000e+00  2.0133301130021006e-05 8.9500000000000007e-04 0.0000000000000000e+00  2.2497999760894431e-05 8.9500000000000007e-04 0.0000000000000000e+00  2.4895751540603511e-05 8.9500000000000007e-04 0.0000000000000000e+00  2.7330074449247302e-05 8.9500000000000007e-04 0.0000000000000000e+00  2.9803752783633832e-05 8.9500000000000007e-04 0.0000000000000000e+00  3.2319055872424546e-05 8.9500000000000007e-04 0.0000000000000000e+00  3.4881009894841836e-05 8.9500000000000007e-04 0.0000000000000000e+00  3.7486766399322965e-05 8.9500000000000007e-04 0.0000000000000000e+00  4.0146651739652899e-05 8.9500000000000007e-04 0.0000000000000000e+00  4.2859456123914366e-05 8.9500000000000007e-04 0.0000000000000000e+00  4.5613651850748074e-05 8.9500000000000007e-04 0.0000000000000000e+00  4.8427547386301693e-05 8.9500000000000007e-04 0.0000000000000000e+00  5.1294668098538597e-05 8.9500000000000007e-04 0.0000000000000000e+00  5.4211571258153980e-05 8.9500000000000007e-04 0.0000000000000000e+00  5.7178776115069795e-05 8.9500000000000007e-04 0.0000000000000000e+00  6.0188400329559454e-05 8.9500000000000007e-04 0.0000000000000000e+00  6.3265334937978582e-05 8.9500000000000007e-04 0.0000000000000000e+00  6.6346986412481296e-05 8.9500000000000007e-04 0.0000000000000000e+00  6.9465941731144143e-05 8.9500000000000007e-04 0.0000000000000000e+00  7.2610980137564329e-05 8.9500000000000007e-04 0.0000000000000000e+00  7.5773996782197656e-05 8.9500000000000007e-04 0.0000000000000000e+00  7.8911394447369885e-05 8.9500000000000007e-04 0.0000000000000000e+00  8.2037957865114077e-05 8.9500000000000007e-04 0.0000000000000000e+00  8.5121244060511832e-05 8.9500000000000007e-04 0.0000000000000000e+00  8.8147691858718815e-05 8.9500000000000007e-04 0.0000000000000000e+00  9.1102530643301851e-05 8.9500000000000007e-04 0.0000000000000000e+00  9.3903795833602820e-05 8.9500000000000007e-04 0.0000000000000000e+00  9.6561840030413989e-05 8.9500000000000007e-04 0.0000000000000000e+00  9.9009694979015743e-05 8.9500000000000007e-04 0.0000000000000000e+00  1.0131552810205478e-04 8.9500000000000007e-04 0.0000000000000000e+00  1.0333448022895903e-04 8.9500000000000007e-04 0.0000000000000000e+00  1.0504308831220036e-04 8.9500000000000007e-04 0.0000000000000000e+00  1.0646695526589654e-04 8.9500000000000007e-04 0.0000000000000000e+00  1.0746834913246026e-04 8.9500000000000007e-04 0.0000000000000000e+00  1.0818879189564711e-04 8.9500000000000007e-04 0.0000000000000000e+00  1.0845713384196438e-04 8.9500000000000007e-04 0.0000000000000000e+00  1.0818873636739546e-04 8.9500000000000007e-04 0.0000000000000000e+00  1.0739747670873474e-04 8.9500000000000007e-04 0.0000000000000000e+00  1.0615509464731251e-04 8.9500000000000007e-04 0.0000000000000000e+00  1.0436684917390296e-04 8.9500000000000007e-04 0.0000000000000000e+00  1.0203791852283789e-04 8.9500000000000007e-04 0.0000000000000000e+00  9.9224494039236804e-05 8.9500000000000007e-04 0.0000000000000000e+00  9.5870649476342839e-05 8.9500000000000007e-04 0.0000000000000000e+00  9.2219414740815902e-05 8.9500000000000007e-04 0.0000000000000000e+00  8.7947568194993717e-05 8.9500000000000007e-04 0.0000000000000000e+00  8.3280341037814324e-05 8.9500000000000007e-04 0.0000000000000000e+00  7.8240853931304489e-05 8.9500000000000007e-04 0.0000000000000000e+00  7.2846997481919721e-05 8.9500000000000007e-04 0.0000000000000000e+00  6.7196118729342220e-05 8.9500000000000007e-04 0.0000000000000000e+00  6.1231366931076693e-05 8.9500000000000007e-04 0.0000000000000000e+00  5.5102693718618928e-05 8.9500000000000007e-04 0.0000000000000000e+00  4.8757155202585458e-05 8.9500000000000007e-04 0.0000000000000000e+00  4.2298193942307073e-05 8.9500000000000007e-04 0.0000000000000000e+00  3.5746019143179297e-05 8.9500000000000007e-04 0.0000000000000000e+00  2.9133376040307420e-05 8.9500000000000007e-04 0.0000000000000000e+00  2.2450736687216038e-05 8.9500000000000007e-04 0.0000000000000000e+00  1.5771582115736699e-05 8.9500000000000007e-04 0.0000000000000000e+00  9.0842354012884869e-06 8.9500000000000007e-04 0.0000000000000000e+00  2.4185752431769478e-06 8.9500000000000007e-04 0.0000000000000000e+00  -4.2172988531449369e-06 8.9500000000000007e-04 0.0000000000000000e+00  -1.0813260999300332e-05 8.9500000000000007e-04 0.0000000000000000e+00  -1.7364116105709979e-05 8.9500000000000007e-04 0.0000000000000000e+00  -2.3863289329176264e-05 8.9500000000000007e-04 0.0000000000000000e+00  -3.0305234119101664e-05 8.9500000000000007e-04 0.0000000000000000e+00  -3.6705058058386049e-05 8.9500000000000007e-04 0.0000000000000000e+00  -4.3043839067618121e-05 8.9500000000000007e-04 0.0000000000000000e+00  -4.9325306898326813e-05 8.9500000000000007e-04 0.0000000000000000e+00  -5.5567460508890310e-05 8.9500000000000007e-04 0.0000000000000000e+00  -6.1755122071053767e-05 8.9500000000000007e-04 0.0000000000000000e+00  -6.7903518210104009e-05 8.9500000000000007e-04 0.0000000000000000e+00  -7.4011583076769369e-05 8.9500000000000007e-04 0.0000000000000000e+00  -8.0084795872065111e-05 8.9500000000000007e-04 0.0000000000000000e+00  -8.6126331399040813e-05 8.9500000000000007e-04 0.0000000000000000e+00  -9.2136819238113518e-05 8.9500000000000007e-04 0.0000000000000000e+00  -9.8126646705062090e-05 8.9500000000000007e-04 0.0000000000000000e+00  -1.0409789389240578e-04 8.9500000000000007e-04 0.0000000000000000e+00  -1.1005474828962356e-04 8.9500000000000007e-04 0.0000000000000000e+00  -1.1599929817408034e-04 8.9500000000000007e-04 0.0000000000000000e+00  -1.2192974302719063e-04 8.9500000000000007e-04 0.0000000000000000e+00  -1.2785665972671646e-04 8.9500000000000007e-04 0.0000000000000000e+00  -1.3378309833590520e-04 8.9500000000000007e-04 0.0000000000000000e+00  -1.3971298378127008e-04 8.9500000000000007e-04 0.0000000000000000e+00  -1.4563305091621565e-04 8.9500000000000007e-04 0.0000000000000000e+00  -1.5156320371000878e-04 8.9500000000000007e-04 0.0000000000000000e+00  -1.5750270943291431e-04 8.9500000000000007e-04 0.0000000000000000e+00  -1.6343809961825092e-04 8.9500000000000007e-04 0.0000000000000000e+00  -1.6938643312124467e-04 8.9500000000000007e-04 0.0000000000000000e+00  -1.7534507388320599e-04 8.9500000000000007e-04 0.0000000000000000e+00  -1.8131578828745097e-04 8.9500000000000007e-04 0.0000000000000000e+00  -1.8729188815149432e-04 8.9500000000000007e-04 0.0000000000000000e+00  -1.9326987559962068e-04 8.9500000000000007e-04 0.0000000000000000e+00  -1.9925859014444298e-04 8.9500000000000007e-04 0.0000000000000000e+00  -2.0525986017606369e-04 8.9500000000000007e-04 0.0000000000000000e+00  -2.1126259938500713e-04 8.9500000000000007e-04 0.0000000000000000e+00  -2.1726847149177480e-04 8.9500000000000007e-04 0.0000000000000000e+00  -2.2327708932608084e-04 8.9500000000000007e-04 0.0000000000000000e+00  -2.2929101834337186e-04 8.9500000000000007e-04 0.0000000000000000e+00  -2.3529625643694109e-04 8.9500000000000007e-04 0.0000000000000000e+00  -2.4130436675273253e-04 8.9500000000000007e-04 0.0000000000000000e+00  -2.4729595737187153e-04 8.9500000000000007e-04 0.0000000000000000e+00  -2.5328629659269423e-04 8.9500000000000007e-04 0.0000000000000000e+00  -2.5926555241789653e-04 8.9500000000000007e-04 0.0000000000000000e+00  -2.6522032932571875e-04 8.9500000000000007e-04 0.0000000000000000e+00  -2.7115863524604849e-04 8.9500000000000007e-04 0.0000000000000000e+00  -2.7707680116319933e-04 8.9500000000000007e-04 0.0000000000000000e+00  -2.8296704168149361e-04 8.9500000000000007e-04 0.0000000000000000e+00  -2.8882235003255393e-04 8.9500000000000007e-04 0.0000000000000000e+00  -2.9466015345503668e-04 8.9500000000000007e-04 0.0000000000000000e+00  -3.0045253362483506e-04 8.9500000000000007e-04 0.0000000000000000e+00  -3.0620318329172420e-04 8.9500000000000007e-04 0.0000000000000000e+00  -3.1190968454926083e-04 8.9500000000000007e-04 0.0000000000000000e+00  -3.1756310300679941e-04 8.9500000000000007e-04 0.0000000000000000e+00  -3.2317143781743766e-04 8.9500000000000007e-04 0.0000000000000000e+00  -3.2873476514495235e-04 8.9500000000000007e-04 0.0000000000000000e+00  -3.3421972761587642e-04 8.9500000000000007e-04 0.0000000000000000e+00  -3.3966830072308034e-04 8.9500000000000007e-04 0.0000000000000000e+00  -3.4498474303332497e-04 8.7891358048181371e-04 0.0000000000000000e+00  -3.4470214198439511e-04 8.6282473053844722e-04 0.0000000000000000e+00  -3.4430388164261185e-04 8.4673369614688462e-04 0.0000000000000000e+00  -3.4368679846810598e-04 8.3064047026502278e-04 0.0000000000000000e+00  -3.4291434128165625e-04 8.1456747256276126e-04 0.0000000000000000e+00  -3.4193106990464665e-04 7.9845822123946592e-04 0.0000000000000000e+00  -3.4079349397818181e-04 7.8237890475562797e-04 0.0000000000000000e+00  -3.3948183197114328e-04 7.6627300521263570e-04 0.0000000000000000e+00  -3.3796992249178302e-04 7.5016914269817594e-04 0.0000000000000000e+00  -3.3627075998150552e-04 7.3408635149354543e-04 0.0000000000000000e+00  -3.3438469213554095e-04 7.1796731664869188e-04 0.0000000000000000e+00  -3.3230370604923128e-04 7.0185549900304877e-04 0.0000000000000000e+00  -3.3003127623777050e-04 6.8572037906499479e-04 0.0000000000000000e+00  -3.2754551073870328e-04 6.6961547734931169e-04 0.0000000000000000e+00  -3.2486630997020086e-04 6.5345470044846847e-04 0.0000000000000000e+00  -3.2196560090391274e-04 6.3727200005175475e-04 0.0000000000000000e+00  -3.1884587757815896e-04 6.2111017054362232e-04 0.0000000000000000e+00  -3.1550458600390695e-04 6.0489406613625503e-04 0.0000000000000000e+00  -3.1192644126773667e-04 5.8869320666879920e-04 0.0000000000000000e+00  -3.0811290088601670e-04 5.7245159593203362e-04 0.0000000000000000e+00  -3.0406353962381935e-04 5.5613770774177009e-04 0.0000000000000000e+00  -2.9974807520130630e-04 5.3985485318717422e-04 0.0000000000000000e+00  -2.9517877915049407e-04 5.2347882516168645e-04 0.0000000000000000e+00  -2.9032231142027718e-04 5.0709232131160612e-04 0.0000000000000000e+00  -2.8520972111185737e-04 4.9061886563323053e-04 0.0000000000000000e+00  -2.7977906502321237e-04 4.7414161293721083e-04 0.0000000000000000e+00  -2.7407645851430660e-04 4.5752105661334602e-04 0.0000000000000000e+00  