<?xml version="1.0"?>
<VTKFile type="UnstructuredGrid"  version="0.1"  >
<UnstructuredGrid>
<Piece  NumberOfPoints="16512" NumberOfCells="32424">
<Points>
<DataArray  type="Float64"  NumberOfComponents="3"  format="ascii">-25 4.9 0  25 4.9 0  25 -4.9 0  -25 -4.9 0  -10 0 0  10 0 0  -24.80000000000034 4.9 0  -24.60000000000068 4.9 0  -24.40000000000101 4.9 0  -24.20000000000135 4.9 0  -24.00000000000169 4.9 0  -23.80000000000203 4.9 0  -23.60000000000237 4.9 0  -23.40000000000271 4.9 0  -23.20000000000304 4.9 0  -23.00000000000338 4.9 0  -22.80000000000372 4.9 0  -22.60000000000406 4.9 0  -22.40000000000439 4.9 0  -22.20000000000473 4.9 0  -22.00000000000507 4.9 0  -21.80000000000541 4.9 0  -21.60000000000575 4.9 0  -21.40000000000608 4.9 0  -21.20000000000642 4.9 0  -21.00000000000676 4.9 0  -20.8000000000071 4.9 0  -20.60000000000744 4.9 0  -20.40000000000777 4.9 0  -20.20000000000811 4.9 0  -20.00000000000845 4.9 0  -19.80000000000879 4.9 0  -19.60000000000912 4.9 0  -19.40000000000946 4.9 0  -19.2000000000098 4.9 0  -19.00000000001039 4.9 0  -18.80000000001108 4.9 0  -18.60000000001231 4.9 0  -18.40000000001371 4.9 0  -18.2000000000154 4.9 0  -18.00000000001716 4.9 0  -17.80000000001892 4.9 0  -17.60000000002067 4.9 0  -17.40000000002243 4.9 0  -17.20000000002419 4.9 0  -17.00000000002595 4.9 0  -16.80000000002771 4.9 0  -16.60000000002947 4.9 0  -16.40000000003123 4.9 0  -16.20000000003299 4.9 0  -16.00000000003472 4.9 0  -15.80000000003612 4.9 0  -15.60000000003748 4.9 0  -15.40000000003853 4.9 0  -15.20000000003958 4.9 0  -15.00000000004063 4.9 0  -14.80000000004168 4.9 0  -14.60000000004273 4.9 0  -14.40000000004377 4.9 0  -14.20000000004482 4.9 0  -14.00000000004587 4.9 0  -13.80000000004692 4.9 0  -13.60000000004797 4.9 0  -13.40000000004902 4.9 0  -13.20000000005007 4.9 0  -13.00000000005111 4.9 0  -12.80000000005216 4.9 0  -12.60000000005321 4.9 0  -12.40000000005426 4.9 0  -12.20000000005531 4.9 0  -12.00000000005636 4.9 0  -11.80000000005741 4.9 0  -11.60000000005846 4.9 0  -11.4000000000595 4.9 0  -11.20000000006055 4.9 0  -11.0000000000616 4.9 0  -10.80000000006265 4.9 0  -10.6000000000637 4.9 0  -10.40000000006475 4.9 0  -10.2000000000658 4.9 0  -10.00000000006684 4.9 0  -9.800000000067891 4.9 0  -9.60000000006894 4.9 0  -9.400000000069989 4.9 0  -9.200000000070727 4.9 0  -9.00000000007142 4.9 0  -8.800000000071787 4.9 0  -8.600000000072125 4.9 0  -8.400000000072467 4.9 0  -8.200000000072805 4.9 0  -8.000000000073143 4.9 0  -7.800000000073481 4.9 0  -7.60000000007382 4.9 0  -7.400000000074154 4.9 0  -7.200000000074493 4.9 0  -7.000000000074831 4.9 0  -6.800000000075173 4.9 0  -6.600000000075511 4.9 0  -6.400000000075849 4.9 0  -6.200000000076187 4.9 0  -6.000000000076525 4.9 0  -5.800000000076867 4.9 0  -5.600000000077205 4.9 0  -5.400000000077544 4.9 0  -5.200000000077882 4.9 0  -5.00000000007822 4.9 0  -4.800000000078558 4.9 0  -4.600000000078897 4.9 0  -4.400000000079235 4.9 0  -4.200000000079573 4.9 0  -4.000000000079908 4.9 0  -3.800000000080246 4.9 0  -3.600000000080588 4.9 0  -3.400000000080926 4.9 0  -3.200000000081264 4.9 0  -3.000000000081606 4.9 0  -2.800000000081944 4.9 0  -2.600000000082282 4.9 0  -2.40000000008262 4.9 0  -2.200000000082959 4.9 0  -2.000000000083297 4.9 0  -1.800000000083635 4.9 0  -1.600000000083973 4.9 0  -1.400000000084312 4.9 0  -1.20000000008465 4.9 0  -1.000000000084988 4.9 0  -0.8000000000853262 4.9 0  -0.6000000000856645 4.9 0  -0.4000000000860027 4.9 0  -0.2000000000863409 4.9 0  -8.667910833537462e-11 4.9 0  0.1999999999129827 4.9 0  0.3999999999126409 4.9 0  0.5999999999123027 4.9 0  0.7999999999119716 4.9 0  0.9999999999116262 4.9 0  1.199999999911295 4.9 0  1.39999999991095 4.9 0  1.599999999910619 4.9 0  1.799999999910273 4.9 0  1.999999999909939 4.9 0  2.199999999909597 4.9 0  2.399999999909262 4.9 0  2.599999999908921 4.9 0  2.799999999908582 4.9 0  2.999999999908244 4.9 0  3.199999999907906 4.9 0  3.399999999907564 4.9 0  3.599999999907226 4.9 0  3.799999999906888 4.9 0  3.999999999906549 4.9 0  4.199999999906218 4.9 0  4.399999999905873 4.9 0  4.599999999905542 4.9 0  4.799999999905197 4.9 0  4.999999999904865 4.9 0  5.19999999990452 4.9 0  5.399999999904182 4.9 0  5.599999999903844 4.9 0  5.799999999903505 4.9 0  5.999999999903167 4.9 0  6.199999999902829 4.9 0  6.399999999902491 4.9 0  6.599999999902153 4.9 0  6.799999999902379 4.9 0  6.999999999902752 4.9 0  7.199999999903724 4.9 0  7.399999999904807 4.9 0  7.59999999990589 4.9 0  7.799999999906966 4.9 0  7.999999999908056 4.9 0  8.199999999909132 4.9 0  8.399999999910214 4.9 0  8.59999999991129 4.9 0  8.79999999991238 4.9 0  8.999999999913456 4.9 0  9.199999999914539 4.9 0  9.399999999915622 4.9 0  9.599999999916704 4.9 0  9.79999999991778 4.9 0  9.99999999991887 4.9 0  10.19999999991995 4.9 0  10.39999999992103 4.9 0  10.59999999992212 4.9 0  10.79999999992319 4.9 0  10.99999999992428 4.9 0  11.19999999992536 4.9 0  11.39999999992644 4.9 0  11.59999999992752 4.9 0  11.7999999999286 4.9 0  11.99999999992968 4.9 0  12.19999999993077 4.9 0  12.39999999993184 4.9 0  12.59999999993293 4.9 0  12.79999999993401 4.9 0  12.99999999993509 4.9 0  13.19999999993617 4.9 0  13.39999999993726 4.9 0  13.59999999993834 4.9 0  13.79999999993942 4.9 0  13.99999999994051 4.9 0  14.19999999994158 4.9 0  14.39999999994266 4.9 0  14.59999999994375 4.9 0  14.79999999994483 4.9 0  14.99999999994591 4.9 0  15.199999999947 4.9 0  15.39999999994807 4.9 0  15.59999999994915 4.9 0  15.79999999995024 4.9 0  15.99999999995132 4.9 0  16.1999999999524 4.9 0  16.39999999995349 4.9 0  16.59999999995456 4.9 0  16.79999999995565 4.9 0  16.99999999995674 4.9 0  17.19999999995781 4.9 0  17.39999999995889 4.9 0  17.59999999995997 4.9 0  17.79999999996106 4.9 0  17.99999999996214 4.9 0  18.19999999996322 4.9 0  18.3999999999643 4.9 0  18.59999999996538 4.9 0  18.79999999996646 4.9 0  18.99999999996755 4.9 0  19.19999999996863 4.9 0  19.39999999996971 4.9 0  19.59999999997079 4.9 0  19.79999999997187 4.9 0  19.99999999997296 4.9 0  20.19999999997404 4.9 0  20.39999999997512 4.9 0  20.5999999999762 4.9 0  20.79999999997728 4.9 0  20.99999999997836 4.9 0  21.19999999997945 4.9 0  21.39999999998052 4.9 0  21.59999999998161 4.9 0  21.79999999998269 4.9 0  21.99999999998377 4.9 0  22.19999999998485 4.9 0  22.39999999998594 4.9 0  22.59999999998701 4.9 0  22.7999999999881 4.9 0  22.99999999998919 4.9 0  23.19999999999026 4.9 0  23.39999999999135 4.9 0  23.59999999999243 4.9 0  23.79999999999351 4.9 0  23.99999999999459 4.9 0  24.19999999999568 4.9 0  24.39999999999675 4.9 0  24.59999999999783 4.9 0  24.79999999999892 4.9 0  25 4.700000000000415 0  25 4.500000000000868 0  25 4.300000000001562 0  25 4.100000000001831 0  25 3.900000000002072 0  25 3.700000000002459 0  25 3.500000000003038 0  25 3.300000000003653 0  25 3.100000000004294 0  25 2.900000000004838 0  25 2.700000000005293 0  25 2.500000000005957 0  25 2.300000000006508 0  25 2.100000000007153 0  25 1.900000000007722 0  25 1.700000000008417 0  25 1.500000000008938 0  25 1.30000000000963 0  25 1.100000000010154 0  25 0.9000000000108268 0  25 0.7000000000114559 0  25 0.5000000000119762 0  25 0.3000000000126564 0  25 0.1000000000131926 0  25 -0.09999999998679243 0  25 -0.2999999999874587 0  25 -0.4999999999878586 0  25 -0.6999999999884441 0  25 -0.899999999988804 0  25 -1.099999999989427 0  25 -1.299999999989749 0  25 -1.499999999990411 0  25 -1.69999999999073 0  25 -1.899999999991396 0  25 -2.099999999991715 0  25 -2.299999999992381 0  25 -2.499999999993047 0  25 -2.699999999993714 0  25 -2.899999999994227 0  25 -3.099999999994698 0  25 -3.299999999994673 0  25 -3.499999999995339 0  25 -3.699999999996004 0  25 -3.89999999999667 0  25 -4.099999999997335 0  25 -4.299999999998002 0  25 -4.499999999998668 0  25 -4.699999999999335 0  24.80000000000034 -4.9 0  24.60000000000068 -4.9 0  24.40000000000101 -4.9 0  24.20000000000135 -4.9 0  24.00000000000169 -4.9 0  23.80000000000203 -4.9 0  23.60000000000237 -4.9 0  23.40000000000271 -4.9 0  23.20000000000304 -4.9 0  23.00000000000338 -4.9 0  22.80000000000372 -4.9 0  22.60000000000406 -4.9 0  22.40000000000439 -4.9 0  22.20000000000473 -4.9 0  22.00000000000507 -4.9 0  21.80000000000541 -4.9 0  21.60000000000575 -4.9 0  21.40000000000608 -4.9 0  21.20000000000642 -4.9 0  21.00000000000676 -4.9 0  20.8000000000071 -4.9 0  20.60000000000744 -4.9 0  20.40000000000777 -4.9 0  20.20000000000811 -4.9 0  20.00000000000845 -4.9 0  19.80000000000879 -4.9 0  19.60000000000912 -4.9 0  19.40000000000946 -4.9 0  19.2000000000098 -4.9 0  19.00000000001039 -4.9 0  18.80000000001108 -4.9 0  18.60000000001231 -4.9 0  18.40000000001371 -4.9 0  18.2000000000154 -4.9 0  18.00000000001716 -4.9 0  17.80000000001892 -4.9 0  17.60000000002067 -4.9 0  17.40000000002243 -4.9 0  17.20000000002419 -4.9 0  17.00000000002595 -4.9 0  16.80000000002771 -4.9 0  16.60000000002947 -4.9 0  16.40000000003123 -4.9 0  16.20000000003299 -4.9 0  16.00000000003472 -4.9 0  15.80000000003612 -4.9 0  15.60000000003748 -4.9 0  15.40000000003853 -4.9 0  15.20000000003958 -4.9 0  15.00000000004063 -4.9 0  14.80000000004168 -4.9 0  14.60000000004273 -4.9 0  14.40000000004377 -4.9 0  14.20000000004482 -4.9 0  14.00000000004587 -4.9 0  13.80000000004692 -4.9 0  13.60000000004797 -4.9 0  13.40000000004902 -4.9 0  13.20000000005007 -4.9 0  13.00000000005111 -4.9 0  12.80000000005216 -4.9 0  12.60000000005321 -4.9 0  12.40000000005426 -4.9 0  12.20000000005531 -4.9 0  12.00000000005636 -4.9 0  11.80000000005741 -4.9 0  11.60000000005846 -4.9 0  11.4000000000595 -4.9 0  11.20000000006055 -4.9 0  11.0000000000616 -4.9 0  10.80000000006265 -4.9 0  10.6000000000637 -4.9 0  10.40000000006475 -4.9 0  10.2000000000658 -4.9 0  10.00000000006684 -4.9 0  9.800000000067891 -4.9 0  9.60000000006894 -4.9 0  9.400000000069989 -4.9 0  9.200000000070727 -4.9 0  9.00000000007142 -4.9 0  8.800000000071787 -4.9 0  8.600000000072125 -4.9 0  8.400000000072467 -4.9 0  8.200000000072805 -4.9 0  8.000000000073143 -4.9 
[...]
<PointData  Vectors="f_7"> 
<DataArray  type="Float64"  Name="f_7"  NumberOfComponents="3" format="ascii">3.2867359264672979e-04 8.4999999999999995e-04 0.0000000000000000e+00  -3.2853429320439914e-04 8.4999999999999995e-04 0.0000000000000000e+00  0.0000000000000000e+00 0.0000000000000000e+00 0.0000000000000000e+00  0.0000000000000000e+00 0.0000000000000000e+00 0.0000000000000000e+00  4.5535870382904181e-05 4.2033267699112450e-04 0.0000000000000000e+00  -4.6274704474131507e-05 4.0827410691028800e-04 0.0000000000000000e+00  3.2353404238702059e-04 8.4999999999999995e-04 0.0000000000000000e+00  3.1836304689125721e-04 8.4999999999999995e-04 0.0000000000000000e+00  3.1316505263829380e-04 8.4999999999999995e-04 0.0000000000000000e+00  3.0787641283655509e-04 8.4999999999999995e-04 0.0000000000000000e+00  3.0256438585170796e-04 8.4999999999999995e-04 0.0000000000000000e+00  2.9718449328546177e-04 8.4999999999999995e-04 0.0000000000000000e+00  2.9177316560038681e-04 8.4999999999999995e-04 0.0000000000000000e+00  2.8630368851924012e-04 8.4999999999999995e-04 0.0000000000000000e+00  2.8081834949375073e-04 8.4999999999999995e-04 0.0000000000000000e+00  2.7528218300570592e-04 8.4999999999999995e-04 0.0000000000000000e+00  2.6971533052967781e-04 8.4999999999999995e-04 0.0000000000000000e+00  2.6414124063082507e-04 8.4999999999999995e-04 0.0000000000000000e+00  2.5850769818492654e-04 8.4999999999999995e-04 0.0000000000000000e+00  2.5287170906617285e-04 8.4999999999999995e-04 0.0000000000000000e+00  2.4722429150229630e-04 8.4999999999999995e-04 0.0000000000000000e+00  2.4156810167156318e-04 8.4999999999999995e-04 0.0000000000000000e+00  2.3586993005650998e-04 8.4999999999999995e-04 0.0000000000000000e+00  2.3017904221882228e-04 8.4999999999999995e-04 0.0000000000000000e+00  2.2449452189758523e-04 8.4999999999999995e-04 0.0000000000000000e+00  2.1878248238515967e-04 8.4999999999999995e-04 0.0000000000000000e+00  2.1307752947414394e-04 8.4999999999999995e-04 0.0000000000000000e+00  2.0737588031381193e-04 8.4999999999999995e-04 0.0000000000000000e+00  2.0168415204101093e-04 8.4999999999999995e-04 0.0000000000000000e+00  1.9600546031531136e-04 8.4999999999999995e-04 0.0000000000000000e+00  1.9030462389066531e-04 8.4999999999999995e-04 0.0000000000000000e+00  1.8462058740663985e-04 8.4999999999999995e-04 0.0000000000000000e+00  1.7895194584214967e-04 8.4999999999999995e-04 0.0000000000000000e+00  1.7328749626142827e-04 8.4999999999999995e-04 0.0000000000000000e+00  1.6763332380839800e-04 8.4999999999999995e-04 0.0000000000000000e+00  1.6199057706392736e-04 8.4999999999999995e-04 0.0000000000000000e+00  1.5635138440069424e-04 8.4999999999999995e-04 0.0000000000000000e+00  1.5072169442451229e-04 8.4999999999999995e-04 0.0000000000000000e+00  1.4510255946825523e-04 8.4999999999999995e-04 0.0000000000000000e+00  1.3949421442817537e-04 8.4999999999999995e-04 0.0000000000000000e+00  1.3387688576487264e-04 8.4999999999999995e-04 0.0000000000000000e+00  1.2826973807335626e-04 8.4999999999999995e-04 0.0000000000000000e+00  1.2266096959705496e-04 8.4999999999999995e-04 0.0000000000000000e+00  1.1705372394774541e-04 8.4999999999999995e-04 0.0000000000000000e+00  1.1143767897715026e-04 8.4999999999999995e-04 0.0000000000000000e+00  1.0581742048136565e-04 8.4999999999999995e-04 0.0000000000000000e+00  1.0018915046728788e-04 8.4999999999999995e-04 0.0000000000000000e+00  9.4546773660985861e-05 8.4999999999999995e-04 0.0000000000000000e+00  8.8886731410310263e-05 8.4999999999999995e-04 0.0000000000000000e+00  8.3206791645657288e-05 8.4999999999999995e-04 0.0000000000000000e+00  7.7501971674350277e-05 8.4999999999999995e-04 0.0000000000000000e+00  7.1769411676580260e-05 8.4999999999999995e-04 0.0000000000000000e+00  6.6008126638836566e-05 8.4999999999999995e-04 0.0000000000000000e+00  6.0208100067317053e-05 8.4999999999999995e-04 0.0000000000000000e+00  5.4366769857500111e-05 8.4999999999999995e-04 0.0000000000000000e+00  4.8488858263955640e-05 8.4999999999999995e-04 0.0000000000000000e+00  4.2562800572251914e-05 8.4999999999999995e-04 0.0000000000000000e+00  3.6591169678943262e-05 8.4999999999999995e-04 0.0000000000000000e+00  3.0571518516311582e-05 8.4999999999999995e-04 0.0000000000000000e+00  2.4485304110683339e-05 8.4999999999999995e-04 0.0000000000000000e+00  1.8375052151957113e-05 8.4999999999999995e-04 0.0000000000000000e+00  1.2210712177507832e-05 8.4999999999999995e-04 0.0000000000000000e+00  6.0023796801171763e-06 8.4999999999999995e-04 0.0000000000000000e+00  -2.5093593613550248e-07 8.4999999999999995e-04 0.0000000000000000e+00  -6.5276080294707040e-06 8.4999999999999995e-04 0.0000000000000000e+00  -1.2836974338519170e-05 8.4999999999999995e-04 0.0000000000000000e+00  -1.9115777418199812e-05 8.4999999999999995e-04 0.0000000000000000e+00  -2.5392340086333474e-05 8.4999999999999995e-04 0.0000000000000000e+00  -3.1636376103680223e-05 8.4999999999999995e-04 0.0000000000000000e+00  -3.7836641756796693e-05 8.4999999999999995e-04 0.0000000000000000e+00  -4.3964129256821935e-05 8.4999999999999995e-04 0.0000000000000000e+00  -4.9939285991459922e-05 8.4999999999999995e-04 0.0000000000000000e+00  -5.5760799118905164e-05 8.4999999999999995e-04 0.0000000000000000e+00  -6.1342434805859310e-05 8.4999999999999995e-04 0.0000000000000000e+00  -6.6740835308811569e-05 8.4999999999999995e-04 0.0000000000000000e+00  -7.1935618509749976e-05 8.4999999999999995e-04 0.0000000000000000e+00  -7.6784335000442224e-05 8.4999999999999995e-04 0.0000000000000000e+00  -8.1220328312218623e-05 8.4999999999999995e-04 0.0000000000000000e+00  -8.5286058973536039e-05 8.4999999999999995e-04 0.0000000000000000e+00  -8.9024221658563337e-05 8.4999999999999995e-04 0.0000000000000000e+00  -9.2219005305218795e-05 8.4999999999999995e-04 0.0000000000000000e+00  -9.5031073318930888e-05 8.4999999999999995e-04 0.0000000000000000e+00  -9.7358550359560305e-05 8.4999999999999995e-04 0.0000000000000000e+00  -9.9160420570890186e-05 8.4999999999999995e-04 0.0000000000000000e+00  -1.0050960528088639e-04 8.4999999999999995e-04 0.0000000000000000e+00  -1.0142501283181149e-04 8.4999999999999995e-04 0.0000000000000000e+00  -1.0187668251096418e-04 8.4999999999999995e-04 0.0000000000000000e+00  -1.0188033555778958e-04 8.4999999999999995e-04 0.0000000000000000e+00  -1.0145674465562582e-04 8.4999999999999995e-04 0.0000000000000000e+00  -1.0064369970769411e-04 8.4999999999999995e-04 0.0000000000000000e+00  -9.9524297116498455e-05 8.4999999999999995e-04 0.0000000000000000e+00  -9.8111341865180475e-05 8.4999999999999995e-04 0.0000000000000000e+00  -9.6377414546773213e-05 8.4999999999999995e-04 0.0000000000000000e+00  -9.4372327850765576e-05 8.4999999999999995e-04 0.0000000000000000e+00  -9.2199623850833354e-05 8.4999999999999995e-04 0.0000000000000000e+00  -8.9851313331987002e-05 8.4999999999999995e-04 0.0000000000000000e+00  -8.7356113161835231e-05 8.4999999999999995e-04 0.0000000000000000e+00  -8.4694175081561119e-05 8.4999999999999995e-04 0.0000000000000000e+00  -8.1954757851919683e-05 8.4999999999999995e-04 0.0000000000000000e+00  -7.9140652053491623e-05 8.4999999999999995e-04 0.0000000000000000e+00  -7.6283212188749672e-05 8.4999999999999995e-04 0.0000000000000000e+00  -7.3357275029332651e-05 8.4999999999999995e-04 0.0000000000000000e+00  -7.0428863687188213e-05 8.4999999999999995e-04 0.0000000000000000e+00  -6.7497770110067047e-05 8.4999999999999995e-04 0.0000000000000000e+00  -6.4564756661812729e-05 8.4999999999999995e-04 0.0000000000000000e+00  -6.1644058781015572e-05 8.4999999999999995e-04 0.0000000000000000e+00  -5.8751586762480326e-05 8.4999999999999995e-04 0.0000000000000000e+00  -5.5894458599720608e-05 8.4999999999999995e-04 0.0000000000000000e+00  -5.3047021123376915e-05 8.4999999999999995e-04 0.0000000000000000e+00  -5.0250959472283045e-05 8.4999999999999995e-04 0.0000000000000000e+00  -4.7498404274072889e-05 8.4999999999999995e-04 0.0000000000000000e+00  -4.4792894649295247e-05 8.4999999999999995e-04 0.0000000000000000e+00  -4.2136380434729947e-05 8.4999999999999995e-04 0.0000000000000000e+00  -3.9517787645628442e-05 8.4999999999999995e-04 0.0000000000000000e+00  -3.6947170336238967e-05 8.4999999999999995e-04 0.0000000000000000e+00  -3.4424658452788415e-05 8.4999999999999995e-04 0.0000000000000000e+00  -3.1945808161300820e-05 8.4999999999999995e-04 0.0000000000000000e+00  -2.9511557234198599e-05 8.4999999999999995e-04 0.0000000000000000e+00  -2.7107911312149661e-05 8.4999999999999995e-04 0.0000000000000000e+00  -2.4746714608643855e-05 8.4999999999999995e-04 0.0000000000000000e+00  -2.2418518666928506e-05 8.4999999999999995e-04 0.0000000000000000e+00  -2.0125111533968579e-05 8.4999999999999995e-04 0.0000000000000000e+00  -1.7859244106065175e-05 8.4999999999999995e-04 0.0000000000000000e+00  -1.5622009838535033e-05 8.4999999999999995e-04 0.0000000000000000e+00  -1.3408808008123315e-05 8.4999999999999995e-04 0.0000000000000000e+00  -1.1216594083435306e-05 8.4999999999999995e-04 0.0000000000000000e+00  -9.0433130526294461e-06 8.4999999999999995e-04 0.0000000000000000e+00  -6.8855553696935260e-06 8.4999999999999995e-04 0.0000000000000000e+00  -4.7398858266215614e-06 8.4999999999999995e-04 0.0000000000000000e+00  -2.6023472831603426e-06 8.4999999999999995e-04 0.0000000000000000e+00  -4.7186199556241503e-07 8.4999999999999995e-04 0.0000000000000000e+00  1.6545325816486239e-06 8.4999999999999995e-04 0.0000000000000000e+00  3.7816587455654329e-06 8.4999999999999995e-04 0.0000000000000000e+00  5.9112622907729191e-06 8.4999999999999995e-04 0.0000000000000000e+00  8.0472845803221940e-06 8.4999999999999995e-04 0.0000000000000000e+00  1.0191573095497558e-05 8.4999999999999995e-04 0.0000000000000000e+00  1.2349183188677977e-05 8.4999999999999995e-04 0.0000000000000000e+00  1.4523419522159421e-05 8.4999999999999995e-04 0.0000000000000000e+00  1.6719207746363132e-05 8.4999999999999995e-04 0.0000000000000000e+00  1.8938866031707692e-05 8.4999999999999995e-04 0.0000000000000000e+00  2.1181449110636703e-05 8.4999999999999995e-04 0.0000000000000000e+00  2.3454829827459643e-05 8.4999999999999995e-04 0.0000000000000000e+00  2.5762249733653460e-05 8.4999999999999995e-04 0.0000000000000000e+00  2.8106483396052040e-05 8.4999999999999995e-04 0.0000000000000000e+00  3.0489626165085598e-05 8.4999999999999995e-04 0.0000000000000000e+00  3.2916552567794663e-05 8.4999999999999995e-04 0.0000000000000000e+00  3.5384412476562501e-05 8.4999999999999995e-04 0.0000000000000000e+00  3.7903178841684686e-05 8.4999999999999995e-04 0.0000000000000000e+00  4.0471777381240095e-05 8.4999999999999995e-04 0.0000000000000000e+00  4.3078755322986390e-05 8.4999999999999995e-04 0.0000000000000000e+00  4.5741930533483893e-05 8.4999999999999995e-04 0.0000000000000000e+00  4.8455036353377254e-05 8.4999999999999995e-04 0.0000000000000000e+00  5.1214245295226962e-05 8.4999999999999995e-04 0.0000000000000000e+00  5.4020219897235018e-05 8.4999999999999995e-04 0.0000000000000000e+00  5.6865354944259882e-05 8.4999999999999995e-04 0.0000000000000000e+00  5.9772912907703326e-05 8.4999999999999995e-04 0.0000000000000000e+00  6.2683192376164419e-05 8.4999999999999995e-04 0.0000000000000000e+00  6.5626838264115590e-05 8.4999999999999995e-04 0.0000000000000000e+00  6.8593009710489003e-05 8.4999999999999995e-04 0.0000000000000000e+00  7.1574128128854209e-05 8.4999999999999995e-04 0.0000000000000000e+00  7.4527459699774598e-05 8.4999999999999995e-04 0.0000000000000000e+00  7.7467594329136736e-05 8.4999999999999995e-04 0.0000000000000000e+00  8.0363235873053676e-05 8.4999999999999995e-04 0.0000000000000000e+00  8.3201039185999015e-05 8.4999999999999995e-04 0.0000000000000000e+00  8.5966749854739469e-05 8.4999999999999995e-04 0.0000000000000000e+00  8.8582217842994755e-05 8.4999999999999995e-04 0.0000000000000000e+00  9.1056963311716329e-05 8.4999999999999995e-04 0.0000000000000000e+00  9.3327301156512308e-05 8.4999999999999995e-04 0.0000000000000000e+00  9.5459126394498107e-05 8.4999999999999995e-04 0.0000000000000000e+00  9.7313814215180556e-05 8.4999999999999995e-04 0.0000000000000000e+00  9.8869677551687531e-05 8.4999999999999995e-04 0.0000000000000000e+00  1.0015195156143499e-04 8.4999999999999995e-04 0.0000000000000000e+00  1.0102994481262863e-04 8.4999999999999995e-04 0.0000000000000000e+00  1.0163915869597914e-04 8.4999999999999995e-04 0.0000000000000000e+00  1.0181764111209453e-04 8.4999999999999995e-04 0.0000000000000000e+00  1.0148626097325143e-04 8.4999999999999995e-04 0.0000000000000000e+00  1.0065980480095769e-04 8.4999999999999995e-04 0.0000000000000000e+00  9.9406908235317944e-05 8.4999999999999995e-04 0.0000000000000000e+00  9.7639379751676453e-05 8.4999999999999995e-04 0.0000000000000000e+00  9.5363320072049297e-05 8.4999999999999995e-04 0.0000000000000000e+00  9.2632730319360315e-05 8.4999999999999995e-04 0.0000000000000000e+00  8.9396089343694968e-05 8.4999999999999995e-04 0.0000000000000000e+00  8.5881741641470052e-05 8.4999999999999995e-04 0.0000000000000000e+00  8.1787949885712494e-05 8.4999999999999995e-04 0.0000000000000000e+00  7.7326541268391190e-05 8.4999999999999995e-04 0.0000000000000000e+00  7.2519545181142542e-05 8.4999999999999995e-04 0.0000000000000000e+00  6.7384331776476047e-05 8.4999999999999995e-04 0.0000000000000000e+00  6.2011931745960442e-05 8.4999999999999995e-04 0.0000000000000000e+00  5.6349506978932589e-05 8.4999999999999995e-04 0.0000000000000000e+00  5.0536952016752207e-05 8.4999999999999995e-04 0.0000000000000000e+00  4.4525343039437349e-05 8.4999999999999995e-04 0.0000000000000000e+00  3.8410456427872934e-05 8.4999999999999995e-04 0.0000000000000000e+00  3.2211150401219860e-05 8.4999999999999995e-04 0.0000000000000000e+00  2.5957774873973087e-05 8.4999999999999995e-04 0.0000000000000000e+00  1.9641328001104718e-05 8.4999999999999995e-04 0.0000000000000000e+00  1.3329807899455171e-05 8.4999999999999995e-04 0.0000000000000000e+00  7.0123319627418190e-06 8.4999999999999995e-04 0.0000000000000000e+00  7.1618497507504928e-07 8.4999999999999995e-04 0.0000000000000000e+00  -5.5511379473380583e-06 8.4999999999999995e-04 0.0000000000000000e+00  -1.1780453861994861e-05 8.4999999999999995e-04 0.0000000000000000e+00  -1.7967174158175124e-05 8.4999999999999995e-04 0.0000000000000000e+00  -2.4105409232794990e-05 8.4999999999999995e-04 0.0000000000000000e+00  -3.0190192802903126e-05 8.4999999999999995e-04 0.0000000000000000e+00  -3.6235357235484291e-05 8.4999999999999995e-04 0.0000000000000000e+00  -4.2224074830505671e-05 8.4999999999999995e-04 0.0000000000000000e+00  -4.8159627902018436e-05 8.4999999999999995e-04 0.0000000000000000e+00  -5.4058563922692346e-05 8.4999999999999995e-04 0.0000000000000000e+00  -5.9907179902125031e-05 8.4999999999999995e-04 0.0000000000000000e+00  -6.5719705016762647e-05 8.4999999999999995e-04 0.0000000000000000e+00  -7.1495180833043708e-05 8.4999999999999995e-04 0.0000000000000000e+00  -7.7238815281776370e-05 8.4999999999999995e-04 0.0000000000000000e+00  -8.2953579607834537e-05 8.4999999999999995e-04 0.0000000000000000e+00  -8.8640066551584710e-05 8.4999999999999995e-04 0.0000000000000000e+00  -9.4308035194425694e-05 8.4999999999999995e-04 0.0000000000000000e+00  -9.9959476240511988e-05 8.4999999999999995e-04 0.0000000000000000e+00  -1.0559834298915121e-04 8.4999999999999995e-04 0.0000000000000000e+00  -1.1122651857311533e-04 8.4999999999999995e-04 0.0000000000000000e+00  -1.1684212060883884e-04 8.4999999999999995e-04 0.0000000000000000e+00  -1.2245541558438387e-04 8.4999999999999995e-04 0.0000000000000000e+00  -1.2806911261363329e-04 8.4999999999999995e-04 0.0000000000000000e+00  -1.3368698473286420e-04 8.4999999999999995e-04 0.0000000000000000e+00  -1.3929615569834131e-04 8.4999999999999995e-04 0.0000000000000000e+00  -1.4491577406753556e-04 8.4999999999999995e-04 0.0000000000000000e+00  -1.5054507609425395e-04 8.4999999999999995e-04 0.0000000000000000e+00  -1.5617107030315341e-04 8.4999999999999995e-04 0.0000000000000000e+00  -1.6181003567038049e-04 8.4999999999999995e-04 0.0000000000000000e+00  -1.6745939947774538e-04 8.4999999999999995e-04 0.0000000000000000e+00  -1.7312082614741908e-04 8.4999999999999995e-04 0.0000000000000000e+00  -1.7878792420247618e-04 8.4999999999999995e-04 0.0000000000000000e+00  -1.8445736838967371e-04 8.4999999999999995e-04 0.0000000000000000e+00  -1.9013747532216306e-04 8.4999999999999995e-04 0.0000000000000000e+00  -1.9582999091510140e-04 8.4999999999999995e-04 0.0000000000000000e+00  -2.0152437667864573e-04 8.4999999999999995e-04 0.0000000000000000e+00  -2.0722214937985575e-04 8.4999999999999995e-04 0.0000000000000000e+00  -2.1292294891154013e-04 8.4999999999999995e-04 0.0000000000000000e+00  -2.1862915769974689e-04 8.4999999999999995e-04 0.0000000000000000e+00  -2.2432745356818892e-04 8.4999999999999995e-04 0.0000000000000000e+00  -2.3002884158679525e-04 8.4999999999999995e-04 0.0000000000000000e+00  -2.3571478661134720e-04 8.4999999999999995e-04 0.0000000000000000e+00  -2.4139986322363564e-04 8.4999999999999995e-04 0.0000000000000000e+00  -2.4707467535476589e-04 8.4999999999999995e-04 0.0000000000000000e+00  -2.5272644807775182e-04 8.4999999999999995e-04 0.0000000000000000e+00  -2.5836278760928459e-04 8.4999999999999995e-04 0.0000000000000000e+00  -2.6398017822089603e-04 8.4999999999999995e-04 0.0000000000000000e+00  -2.6957119224568158e-04 8.4999999999999995e-04 0.0000000000000000e+00  -2.7512914034294445e-04 8.4999999999999995e-04 0.0000000000000000e+00  -2.8067059713859406e-04 8.4999999999999995e-04 0.0000000000000000e+00  -2.8616895137571297e-04 8.4999999999999995e-04 0.0000000000000000e+00  -2.9162769515845340e-04 8.4999999999999995e-04 0.0000000000000000e+00  -2.9704450367592003e-04 8.4999999999999995e-04 0.0000000000000000e+00  -3.0241082932575062e-04 8.4999999999999995e-04 0.0000000000000000e+00  -3.0773427400614670e-04 8.4999999999999995e-04 0.0000000000000000e+00  -3.1301489713665866e-04 8.4999999999999995e-04 0.0000000000000000e+00  -3.1822080903575763e-04 8.4999999999999995e-04 0.0000000000000000e+00  -3.2339204663113936e-04 8.4999999999999995e-04 0.0000000000000000e+00  -3.2843716511199065e-04 8.3473369554350532e-04 0.0000000000000000e+00  -3.2816733169691232e-04 8.1946503511059121e-04 0.0000000000000000e+00  -3.2778705237272016e-04 8.0419423438191269e-04 0.0000000000000000e+00  -3.2719786958518147e-04 7.8892126404012379e-04 0.0000000000000000e+00  -3.2646035823992144e-04 7.7366748006144667e-04 0.0000000000000000e+00  -3.2552158928007298e-04 7.5837897591604858e-04 0.0000000000000000e+00  -3.2443553661342338e-04 7.4311888058738412e-04 0.0000000000000000e+00  -3.2318335414969996e-04 7.2783321824791680e-04 0.0000000000000000e+00  -3.2174008731971330e-04 7.1254929190781361e-04 0.0000000000000000e+00  -3.2011810491554510e-04 6.9728522783951469e-04 0.0000000000000000e+00  -3.1831789917926120e-04 6.8198632886163496e-04 0.0000000000000000e+00  -3.1633169458929010e-04 6.6669404281078932e-04 0.0000000000000000e+00  -3.1416300462962888e-04 6.5137923388829957e-04 0.0000000000000000e+00  -3.1179083719374407e-04 6.3609290540306935e-04 0.0000000000000000e+00  -3.0923429714360679e-04 6.2075299561614391e-04 0.0000000000000000e+00  -3.0646665964043687e-04 6.0539183844829760e-04 0.0000000000000000e+00  -3.0349024216248517e-04 5.9005018900900675e-04 0.0000000000000000e+00  -3.0030282365870468e-04 5.7465644247400556e-04 0.0000000000000000e+00  -2.9688968005965274e-04 5.5927681826496614e-04 0.0000000000000000e+00  -2.9325234568533130e-04 5.4385793097493106e-04 0.0000000000000000e+00  -2.8939055888898277e-04 5.2836980095453251e-04 0.0000000000000000e+00  -2.8527527748052498e-04 5.1291077416800791e-04 0.0000000000000000e+00  -2.8091851104827012e-04 4.9736259953157879e-04 0.0000000000000000e+00  -2.7628824192147777e-04 4.8180399188488639e-04 0.0000000000000000e+00  -2.7141441523174866e-04 4.6616214585907888e-04 0.0000000000000000e+00  -2.6623780695554308e-04 4.5051617057074566e-04 0.0000000000000000e+00  -2.6080267492996600e-04 4.3473333141278044e-04 0.0000000000000000e+00  