<?xml version="1.0"?>
<VTKFile type="UnstructuredGrid"  version="0.1"  >
<UnstructuredGrid>
<Piece  NumberOfPoints="16512" NumberOfCells="32424">
<Points>
<DataArray  type="Float64"  NumberOfComponents="3"  format="ascii">-25 4.9 0  25 4.9 0  25 -4.9 0  -25 -4.9 0  -10 0 0  10 0 0  -24.80000000000034 4.9 0  -24.60000000000068 4.9 0  -24.40000000000101 4.9 0  -24.20000000000135 4.9 0  -24.00000000000169 4.9 0  -23.80000000000203 4.9 0  -23.60000000000237 4.9 0  -23.40000000000271 4.9 0  -23.20000000000304 4.9 0  -23.00000000000338 4.9 0  -22.80000000000372 4.9 0  -22.60000000000406 4.9 0  -22.40000000000439 4.9 0  -22.20000000000473 4.9 0  -22.00000000000507 4.9 0  -21.80000000000541 4.9 0  -21.60000000000575 4.9 0  -21.40000000000608 4.9 0  -21.20000000000642 4.9 0  -21.00000000000676 4.9 0  -20.8000000000071 4.9 0  -20.60000000000744 4.9 0  -20.40000000000777 4.9 0  -20.20000000000811 4.9 0  -20.00000000000845 4.9 0  -19.80000000000879 4.9 0  -19.60000000000912 4.9 0  -19.40000000000946 4.9 0  -19.2000000000098 4.9 0  -19.00000000001039 4.9 0  -18.80000000001108 4.9 0  -18.60000000001231 4.9 0  -18.40000000001371 4.9 0  -18.2000000000154 4.9 0  -18.00000000001716 4.9 0  -17.80000000001892 4.9 0  -17.60000000002067 4.9 0  -17.40000000002243 4.9 0  -17.20000000002419 4.9 0  -17.00000000002595 4.9 0  -16.80000000002771 4.9 0  -16.60000000002947 4.9 0  -16.40000000003123 4.9 0  -16.20000000003299 4.9 0  -16.00000000003472 4.9 0  -15.80000000003612 4.9 0  -15.60000000003748 4.9 0  -15.40000000003853 4.9 0  -15.20000000003958 4.9 0  -15.00000000004063 4.9 0  -14.80000000004168 4.9 0  -14.60000000004273 4.9 0  -14.40000000004377 4.9 0  -14.20000000004482 4.9 0  -14.00000000004587 4.9 0  -13.80000000004692 4.9 0  -13.60000000004797 4.9 0  -13.40000000004902 4.9 0  -13.20000000005007 4.9 0  -13.00000000005111 4.9 0  -12.80000000005216 4.9 0  -12.60000000005321 4.9 0  -12.40000000005426 4.9 0  -12.20000000005531 4.9 0  -12.00000000005636 4.9 0  -11.80000000005741 4.9 0  -11.60000000005846 4.9 0  -11.4000000000595 4.9 0  -11.20000000006055 4.9 0  -11.0000000000616 4.9 0  -10.80000000006265 4.9 0  -10.6000000000637 4.9 0  -10.40000000006475 4.9 0  -10.2000000000658 4.9 0  -10.00000000006684 4.9 0  -9.800000000067891 4.9 0  -9.60000000006894 4.9 0  -9.400000000069989 4.9 0  -9.200000000070727 4.9 0  -9.00000000007142 4.9 0  -8.800000000071787 4.9 0  -8.600000000072125 4.9 0  -8.400000000072467 4.9 0  -8.200000000072805 4.9 0  -8.000000000073143 4.9 0  -7.800000000073481 4.9 0  -7.60000000007382 4.9 0  -7.400000000074154 4.9 0  -7.200000000074493 4.9 0  -7.000000000074831 4.9 0  -6.800000000075173 4.9 0  -6.600000000075511 4.9 0  -6.400000000075849 4.9 0  -6.200000000076187 4.9 0  -6.000000000076525 4.9 0  -5.800000000076867 4.9 0  -5.600000000077205 4.9 0  -5.400000000077544 4.9 0  -5.200000000077882 4.9 0  -5.00000000007822 4.9 0  -4.800000000078558 4.9 0  -4.600000000078897 4.9 0  -4.400000000079235 4.9 0  -4.200000000079573 4.9 0  -4.000000000079908 4.9 0  -3.800000000080246 4.9 0  -3.600000000080588 4.9 0  -3.400000000080926 4.9 0  -3.200000000081264 4.9 0  -3.000000000081606 4.9 0  -2.800000000081944 4.9 0  -2.600000000082282 4.9 0  -2.40000000008262 4.9 0  -2.200000000082959 4.9 0  -2.000000000083297 4.9 0  -1.800000000083635 4.9 0  -1.600000000083973 4.9 0  -1.400000000084312 4.9 0  -1.20000000008465 4.9 0  -1.000000000084988 4.9 0  -0.8000000000853262 4.9 0  -0.6000000000856645 4.9 0  -0.4000000000860027 4.9 0  -0.2000000000863409 4.9 0  -8.667910833537462e-11 4.9 0  0.1999999999129827 4.9 0  0.3999999999126409 4.9 0  0.5999999999123027 4.9 0  0.7999999999119716 4.9 0  0.9999999999116262 4.9 0  1.199999999911295 4.9 0  1.39999999991095 4.9 0  1.599999999910619 4.9 0  1.799999999910273 4.9 0  1.999999999909939 4.9 0  2.199999999909597 4.9 0  2.399999999909262 4.9 0  2.599999999908921 4.9 0  2.799999999908582 4.9 0  2.999999999908244 4.9 0  3.199999999907906 4.9 0  3.399999999907564 4.9 0  3.599999999907226 4.9 0  3.799999999906888 4.9 0  3.999999999906549 4.9 0  4.199999999906218 4.9 0  4.399999999905873 4.9 0  4.599999999905542 4.9 0  4.799999999905197 4.9 0  4.999999999904865 4.9 0  5.19999999990452 4.9 0  5.399999999904182 4.9 0  5.599999999903844 4.9 0  5.799999999903505 4.9 0  5.999999999903167 4.9 0  6.199999999902829 4.9 0  6.399999999902491 4.9 0  6.599999999902153 4.9 0  6.799999999902379 4.9 0  6.999999999902752 4.9 0  7.199999999903724 4.9 0  7.399999999904807 4.9 0  7.59999999990589 4.9 0  7.799999999906966 4.9 0  7.999999999908056 4.9 0  8.199999999909132 4.9 0  8.399999999910214 4.9 0  8.59999999991129 4.9 0  8.79999999991238 4.9 0  8.999999999913456 4.9 0  9.199999999914539 4.9 0  9.399999999915622 4.9 0  9.599999999916704 4.9 0  9.79999999991778 4.9 0  9.99999999991887 4.9 0  10.19999999991995 4.9 0  10.39999999992103 4.9 0  10.59999999992212 4.9 0  10.79999999992319 4.9 0  10.99999999992428 4.9 0  11.19999999992536 4.9 0  11.39999999992644 4.9 0  11.59999999992752 4.9 0  11.7999999999286 4.9 0  11.99999999992968 4.9 0  12.19999999993077 4.9 0  12.39999999993184 4.9 0  12.59999999993293 4.9 0  12.79999999993401 4.9 0  12.99999999993509 4.9 0  13.19999999993617 4.9 0  13.39999999993726 4.9 0  13.59999999993834 4.9 0  13.79999999993942 4.9 0  13.99999999994051 4.9 0  14.19999999994158 4.9 0  14.39999999994266 4.9 0  14.59999999994375 4.9 0  14.79999999994483 4.9 0  14.99999999994591 4.9 0  15.199999999947 4.9 0  15.39999999994807 4.9 0  15.59999999994915 4.9 0  15.79999999995024 4.9 0  15.99999999995132 4.9 0  16.1999999999524 4.9 0  16.39999999995349 4.9 0  16.59999999995456 4.9 0  16.79999999995565 4.9 0  16.99999999995674 4.9 0  17.19999999995781 4.9 0  17.39999999995889 4.9 0  17.59999999995997 4.9 0  17.79999999996106 4.9 0  17.99999999996214 4.9 0  18.19999999996322 4.9 0  18.3999999999643 4.9 0  18.59999999996538 4.9 0  18.79999999996646 4.9 0  18.99999999996755 4.9 0  19.19999999996863 4.9 0  19.39999999996971 4.9 0  19.59999999997079 4.9 0  19.79999999997187 4.9 0  19.99999999997296 4.9 0  20.19999999997404 4.9 0  20.39999999997512 4.9 0  20.5999999999762 4.9 0  20.79999999997728 4.9 0  20.99999999997836 4.9 0  21.19999999997945 4.9 0  21.39999999998052 4.9 0  21.59999999998161 4.9 0  21.79999999998269 4.9 0  21.99999999998377 4.9 0  22.19999999998485 4.9 0  22.39999999998594 4.9 0  22.59999999998701 4.9 0  22.7999999999881 4.9 0  22.99999999998919 4.9 0  23.19999999999026 4.9 0  23.39999999999135 4.9 0  23.59999999999243 4.9 0  23.79999999999351 4.9 0  23.99999999999459 4.9 0  24.19999999999568 4.9 0  24.39999999999675 4.9 0  24.59999999999783 4.9 0  24.79999999999892 4.9 0  25 4.700000000000415 0  25 4.500000000000868 0  25 4.300000000001562 0  25 4.100000000001831 0  25 3.900000000002072 0  25 3.700000000002459 0  25 3.500000000003038 0  25 3.300000000003653 0  25 3.100000000004294 0  25 2.900000000004838 0  25 2.700000000005293 0  25 2.500000000005957 0  25 2.300000000006508 0  25 2.100000000007153 0  25 1.900000000007722 0  25 1.700000000008417 0  25 1.500000000008938 0  25 1.30000000000963 0  25 1.100000000010154 0  25 0.9000000000108268 0  25 0.7000000000114559 0  25 0.5000000000119762 0  25 0.3000000000126564 0  25 0.1000000000131926 0  25 -0.09999999998679243 0  25 -0.2999999999874587 0  25 -0.4999999999878586 0  25 -0.6999999999884441 0  25 -0.899999999988804 0  25 -1.099999999989427 0  25 -1.299999999989749 0  25 -1.499999999990411 0  25 -1.69999999999073 0  25 -1.899999999991396 0  25 -2.099999999991715 0  25 -2.299999999992381 0  25 -2.499999999993047 0  25 -2.699999999993714 0  25 -2.899999999994227 0  25 -3.099999999994698 0  25 -3.299999999994673 0  25 -3.499999999995339 0  25 -3.699999999996004 0  25 -3.89999999999667 0  25 -4.099999999997335 0  25 -4.299999999998002 0  25 -4.499999999998668 0  25 -4.699999999999335 0  24.80000000000034 -4.9 0  24.60000000000068 -4.9 0  24.40000000000101 -4.9 0  24.20000000000135 -4.9 0  24.00000000000169 -4.9 0  23.80000000000203 -4.9 0  23.60000000000237 -4.9 0  23.40000000000271 -4.9 0  23.20000000000304 -4.9 0  23.00000000000338 -4.9 0  22.80000000000372 -4.9 0  22.60000000000406 -4.9 0  22.40000000000439 -4.9 0  22.20000000000473 -4.9 0  22.00000000000507 -4.9 0  21.80000000000541 -4.9 0  21.60000000000575 -4.9 0  21.40000000000608 -4.9 0  21.20000000000642 -4.9 0  21.00000000000676 -4.9 0  20.8000000000071 -4.9 0  20.60000000000744 -4.9 0  20.40000000000777 -4.9 0  20.20000000000811 -4.9 0  20.00000000000845 -4.9 0  19.80000000000879 -4.9 0  19.60000000000912 -4.9 0  19.40000000000946 -4.9 0  19.2000000000098 -4.9 0  19.00000000001039 -4.9 0  18.80000000001108 -4.9 0  18.60000000001231 -4.9 0  18.40000000001371 -4.9 0  18.2000000000154 -4.9 0  18.00000000001716 -4.9 0  17.80000000001892 -4.9 0  17.60000000002067 -4.9 0  17.40000000002243 -4.9 0  17.20000000002419 -4.9 0  17.00000000002595 -4.9 0  16.80000000002771 -4.9 0  16.60000000002947 -4.9 0  16.40000000003123 -4.9 0  16.20000000003299 -4.9 0  16.00000000003472 -4.9 0  15.80000000003612 -4.9 0  15.60000000003748 -4.9 0  15.40000000003853 -4.9 0  15.20000000003958 -4.9 0  15.00000000004063 -4.9 0  14.80000000004168 -4.9 0  14.60000000004273 -4.9 0  14.40000000004377 -4.9 0  14.20000000004482 -4.9 0  14.00000000004587 -4.9 0  13.80000000004692 -4.9 0  13.60000000004797 -4.9 0  13.40000000004902 -4.9 0  13.20000000005007 -4.9 0  13.00000000005111 -4.9 0  12.80000000005216 -4.9 0  12.60000000005321 -4.9 0  12.40000000005426 -4.9 0  12.20000000005531 -4.9 0  12.00000000005636 -4.9 0  11.80000000005741 -4.9 0  11.60000000005846 -4.9 0  11.4000000000595 -4.9 0  11.20000000006055 -4.9 0  11.0000000000616 -4.9 0  10.80000000006265 -4.9 0  10.6000000000637 -4.9 0  10.40000000006475 -4.9 0  10.2000000000658 -4.9 0  10.00000000006684 -4.9 0  9.800000000067891 -4.9 0  9.60000000006894 -4.9 0  9.400000000069989 -4.9 0  9.200000000070727 -4.9 0  9.00000000007142 -4.9 0  8.800000000071787 -4.9 0  8.600000000072125 -4.9 0  8.400000000072467 -4.9 0  8.200000000072805 -4.9 0  8.000000000073143 -4.9 
[...]
<PointData  Vectors="f_7"> 
<DataArray  type="Float64"  Name="f_7"  NumberOfComponents="3" format="ascii">1.6308828325451965e-04 3.8000000000000002e-04 0.0000000000000000e+00  -1.6323486183595010e-04 3.8000000000000002e-04 0.0000000000000000e+00  0.0000000000000000e+00 0.0000000000000000e+00 0.0000000000000000e+00  0.0000000000000000e+00 0.0000000000000000e+00 0.0000000000000000e+00  2.9136859306263268e-05 1.9034918190853395e-04 0.0000000000000000e+00  -2.8534423536386547e-05 1.8717563951627266e-04 0.0000000000000000e+00  1.6086019088259706e-04 3.8000000000000002e-04 0.0000000000000000e+00  1.5861566316620611e-04 3.8000000000000002e-04 0.0000000000000000e+00  1.5635727132859344e-04 3.8000000000000002e-04 0.0000000000000000e+00  1.5405131246900498e-04 3.8000000000000002e-04 0.0000000000000000e+00  1.5173499328566099e-04 3.8000000000000002e-04 0.0000000000000000e+00  1.4938432655869929e-04 3.8000000000000002e-04 0.0000000000000000e+00  1.4701989751813571e-04 3.8000000000000002e-04 0.0000000000000000e+00  1.4462791749542779e-04 3.8000000000000002e-04 0.0000000000000000e+00  1.4223059918742919e-04 3.8000000000000002e-04 0.0000000000000000e+00  1.3981042187468648e-04 3.8000000000000002e-04 0.0000000000000000e+00  1.3737823000644139e-04 3.8000000000000002e-04 0.0000000000000000e+00  1.3494620824201602e-04 3.8000000000000002e-04 0.0000000000000000e+00  1.3248766106429009e-04 3.8000000000000002e-04 0.0000000000000000e+00  1.3003250959176733e-04 3.8000000000000002e-04 0.0000000000000000e+00  1.2757593911461235e-04 3.8000000000000002e-04 0.0000000000000000e+00  1.2512000376737549e-04 3.8000000000000002e-04 0.0000000000000000e+00  1.2264745384383321e-04 3.8000000000000002e-04 0.0000000000000000e+00  1.2018485621257973e-04 3.8000000000000002e-04 0.0000000000000000e+00  1.1773048835050306e-04 3.8000000000000002e-04 0.0000000000000000e+00  1.1526816478255625e-04 3.8000000000000002e-04 0.0000000000000000e+00  1.1281618337136865e-04 3.8000000000000002e-04 0.0000000000000000e+00  1.1037227195929587e-04 3.8000000000000002e-04 0.0000000000000000e+00  1.0794054890590363e-04 3.8000000000000002e-04 0.0000000000000000e+00  1.0552234011424694e-04 3.8000000000000002e-04 0.0000000000000000e+00  1.0309904247727888e-04 3.8000000000000002e-04 0.0000000000000000e+00  1.0069304326553342e-04 3.8000000000000002e-04 0.0000000000000000e+00  9.8302880092318435e-05 3.8000000000000002e-04 0.0000000000000000e+00  9.5922983384236828e-05 3.8000000000000002e-04 0.0000000000000000e+00  9.3556889356584196e-05 3.8000000000000002e-04 0.0000000000000000e+00  9.1206090774642340e-05 3.8000000000000002e-04 0.0000000000000000e+00  8.8866672217606163e-05 3.8000000000000002e-04 0.0000000000000000e+00  8.6542401196246634e-05 3.8000000000000002e-04 0.0000000000000000e+00  8.4233232424592476e-05 3.8000000000000002e-04 0.0000000000000000e+00  8.1941583906839933e-05 3.8000000000000002e-04 0.0000000000000000e+00  7.9654591538539133e-05 3.8000000000000002e-04 0.0000000000000000e+00  7.7386501655542228e-05 3.8000000000000002e-04 0.0000000000000000e+00  7.5130174066059059e-05 3.8000000000000002e-04 0.0000000000000000e+00  7.2889330055975958e-05 3.8000000000000002e-04 0.0000000000000000e+00  7.0655899846240442e-05 3.8000000000000002e-04 0.0000000000000000e+00  6.8435795371837190e-05 3.8000000000000002e-04 0.0000000000000000e+00  6.6227734229975147e-05 3.8000000000000002e-04 0.0000000000000000e+00  6.4028999617042005e-05 3.8000000000000002e-04 0.0000000000000000e+00  6.1838554458515613e-05 3.8000000000000002e-04 0.0000000000000000e+00  5.9655617279556792e-05 3.8000000000000002e-04 0.0000000000000000e+00  5.7478654882914499e-05 3.8000000000000002e-04 0.0000000000000000e+00  5.5307674828241231e-05 3.8000000000000002e-04 0.0000000000000000e+00  5.3141539555209212e-05 3.8000000000000002e-04 0.0000000000000000e+00  5.0978517492184946e-05 3.8000000000000002e-04 0.0000000000000000e+00  4.8818112967487238e-05 3.8000000000000002e-04 0.0000000000000000e+00  4.6659901495206699e-05 3.8000000000000002e-04 0.0000000000000000e+00  4.4501741584554500e-05 3.8000000000000002e-04 0.0000000000000000e+00  4.2342520477234881e-05 3.8000000000000002e-04 0.0000000000000000e+00  4.0183489955822893e-05 3.8000000000000002e-04 0.0000000000000000e+00  3.8021937771295006e-05 3.8000000000000002e-04 0.0000000000000000e+00  3.5861591949562868e-05 3.8000000000000002e-04 0.0000000000000000e+00  3.3700177453817624e-05 3.8000000000000002e-04 0.0000000000000000e+00  3.1538540969114924e-05 3.8000000000000002e-04 0.0000000000000000e+00  2.9377692338965228e-05 3.8000000000000002e-04 0.0000000000000000e+00  2.7221641980585282e-05 3.8000000000000002e-04 0.0000000000000000e+00  2.5069953882085112e-05 3.8000000000000002e-04 0.0000000000000000e+00  2.2935087582402210e-05 3.8000000000000002e-04 0.0000000000000000e+00  2.0812703925769986e-05 3.8000000000000002e-04 0.0000000000000000e+00  1.8709972406113500e-05 3.8000000000000002e-04 0.0000000000000000e+00  1.6630204497533302e-05 3.8000000000000002e-04 0.0000000000000000e+00  1.4582701729588740e-05 3.8000000000000002e-04 0.0000000000000000e+00  1.2582735714894391e-05 3.8000000000000002e-04 0.0000000000000000e+00  1.0634873629684066e-05 3.8000000000000002e-04 0.0000000000000000e+00  8.7610047552052878e-06 3.8000000000000002e-04 0.0000000000000000e+00  6.9462107691297486e-06 3.8000000000000002e-04 0.0000000000000000e+00  5.1950968935331099e-06 3.8000000000000002e-04 0.0000000000000000e+00  3.5446781162445439e-06 3.8000000000000002e-04 0.0000000000000000e+00  2.0119805235289278e-06 3.8000000000000002e-04 0.0000000000000000e+00  5.8513553008370268e-07 3.8000000000000002e-04 0.0000000000000000e+00  -7.4693632401779431e-07 3.8000000000000002e-04 0.0000000000000000e+00  -1.9317052789167958e-06 3.8000000000000002e-04 0.0000000000000000e+00  -3.0092297518878023e-06 3.8000000000000002e-04 0.0000000000000000e+00  -3.9540342392582400e-06 3.8000000000000002e-04 0.0000000000000000e+00  -4.7580128385464432e-06 3.8000000000000002e-04 0.0000000000000000e+00  -5.4409980500511536e-06 3.8000000000000002e-04 0.0000000000000000e+00  -6.0091186820754761e-06 3.8000000000000002e-04 0.0000000000000000e+00  -6.4562173561146611e-06 3.8000000000000002e-04 0.0000000000000000e+00  -6.7876558178308753e-06 3.8000000000000002e-04 0.0000000000000000e+00  -7.0101489597459153e-06 3.8000000000000002e-04 0.0000000000000000e+00  -7.1352298056268344e-06 3.8000000000000002e-04 0.0000000000000000e+00  -7.1840614234835786e-06 3.8000000000000002e-04 0.0000000000000000e+00  -7.1612992643224614e-06 3.8000000000000002e-04 0.0000000000000000e+00  -7.0623667967950113e-06 3.8000000000000002e-04 0.0000000000000000e+00  -6.9011639815599987e-06 3.8000000000000002e-04 0.0000000000000000e+00  -6.7024138117133438e-06 3.8000000000000002e-04 0.0000000000000000e+00  -6.4654154374077303e-06 3.8000000000000002e-04 0.0000000000000000e+00  -6.1985324881158556e-06 3.8000000000000002e-04 0.0000000000000000e+00  -5.8992157111558305e-06 3.8000000000000002e-04 0.0000000000000000e+00  -5.5876179474204016e-06 3.8000000000000002e-04 0.0000000000000000e+00  -5.2655307678266628e-06 3.8000000000000002e-04 0.0000000000000000e+00  -4.9404118688563872e-06 3.8000000000000002e-04 0.0000000000000000e+00  -4.6094289284878378e-06 3.8000000000000002e-04 0.0000000000000000e+00  -4.2846817966848976e-06 3.8000000000000002e-04 0.0000000000000000e+00  -3.9675859188930597e-06 3.8000000000000002e-04 0.0000000000000000e+00  -3.6596535254582573e-06 3.8000000000000002e-04 0.0000000000000000e+00  -3.3635769328111027e-06 3.8000000000000002e-04 0.0000000000000000e+00  -3.0820884873161702e-06 3.8000000000000002e-04 0.0000000000000000e+00  -2.8172656660965104e-06 3.8000000000000002e-04 0.0000000000000000e+00  -2.5650227749101715e-06 3.8000000000000002e-04 0.0000000000000000e+00  -2.3315225357971327e-06 3.8000000000000002e-04 0.0000000000000000e+00  -2.1160416236879420e-06 3.8000000000000002e-04 0.0000000000000000e+00  -1.9196070250129551e-06 3.8000000000000002e-04 0.0000000000000000e+00  -1.7408721280443003e-06 3.8000000000000002e-04 0.0000000000000000e+00  -1.5790688045962445e-06 3.8000000000000002e-04 0.0000000000000000e+00  -1.4335025680506387e-06 3.8000000000000002e-04 0.0000000000000000e+00  -1.3051639417566251e-06 3.8000000000000002e-04 0.0000000000000000e+00  -1.1920905087429627e-06 3.8000000000000002e-04 0.0000000000000000e+00  -1.0932982588858726e-06 3.8000000000000002e-04 0.0000000000000000e+00  -1.0063311277708461e-06 3.8000000000000002e-04 0.0000000000000000e+00  -9.3208778791314757e-07 3.8000000000000002e-04 0.0000000000000000e+00  -8.6743100610716140e-07 3.8000000000000002e-04 0.0000000000000000e+00  -8.1282275293938603e-07 3.8000000000000002e-04 0.0000000000000000e+00  -7.6538580615378421e-07 3.8000000000000002e-04 0.0000000000000000e+00  -7.2491058107212156e-07 3.8000000000000002e-04 0.0000000000000000e+00  -6.8965571901125763e-07 3.8000000000000002e-04 0.0000000000000000e+00  -6.5822978226737489e-07 3.8000000000000002e-04 0.0000000000000000e+00  -6.2961803081152029e-07 3.8000000000000002e-04 0.0000000000000000e+00  -6.0246287050300474e-07 3.8000000000000002e-04 0.0000000000000000e+00  -5.7497486714855602e-07 3.8000000000000002e-04 0.0000000000000000e+00  -5.4664891091960922e-07 3.8000000000000002e-04 0.0000000000000000e+00  -5.1634269167550433e-07 3.8000000000000002e-04 0.0000000000000000e+00  -4.8312551434433794e-07 3.8000000000000002e-04 0.0000000000000000e+00  -4.4466189732186163e-07 3.8000000000000002e-04 0.0000000000000000e+00  -4.0168382574608365e-07 3.8000000000000002e-04 0.0000000000000000e+00  -3.5286366631934249e-07 3.8000000000000002e-04 0.0000000000000000e+00  -2.9619667630129770e-07 3.8000000000000002e-04 0.0000000000000000e+00  -2.3177583167622480e-07 3.8000000000000002e-04 0.0000000000000000e+00  -1.5848766075677547e-07 3.8000000000000002e-04 0.0000000000000000e+00  -7.5103320398506757e-08 3.8000000000000002e-04 0.0000000000000000e+00  1.7684954332904252e-08 3.8000000000000002e-04 0.0000000000000000e+00  1.2067722266143625e-07 3.8000000000000002e-04 0.0000000000000000e+00  2.3440709756498331e-07 3.8000000000000002e-04 0.0000000000000000e+00  3.5989362124520077e-07 3.8000000000000002e-04 0.0000000000000000e+00  4.9699028942197497e-07 3.8000000000000002e-04 0.0000000000000000e+00  6.4623854433796224e-07 3.8000000000000002e-04 0.0000000000000000e+00  8.0823532305598556e-07 3.8000000000000002e-04 0.0000000000000000e+00  9.8266863260664231e-07 3.8000000000000002e-04 0.0000000000000000e+00  1.1712099520682461e-06 3.8000000000000002e-04 0.0000000000000000e+00  1.3732507741123183e-06 3.8000000000000002e-04 0.0000000000000000e+00  1.5876873612251761e-06 3.8000000000000002e-04 0.0000000000000000e+00  1.8172196180676048e-06 3.8000000000000002e-04 0.0000000000000000e+00  2.0606900133673392e-06 3.8000000000000002e-04 0.0000000000000000e+00  2.3188205755026064e-06 3.8000000000000002e-04 0.0000000000000000e+00  2.5909970051598392e-06 3.8000000000000002e-04 0.0000000000000000e+00  2.8755622496163412e-06 3.8000000000000002e-04 0.0000000000000000e+00  3.1785628453504592e-06 3.8000000000000002e-04 0.0000000000000000e+00  3.4864773729564769e-06 3.8000000000000002e-04 0.0000000000000000e+00  3.8064133107429503e-06 3.8000000000000002e-04 0.0000000000000000e+00  4.1354951294622810e-06 3.8000000000000002e-04 0.0000000000000000e+00  4.4714973517973838e-06 3.8000000000000002e-04 0.0000000000000000e+00  4.8058935560377708e-06 3.8000000000000002e-04 0.0000000000000000e+00  5.1402393276587904e-06 3.8000000000000002e-04 0.0000000000000000e+00  5.4675350120516378e-06 3.8000000000000002e-04 0.0000000000000000e+00  5.7841049525411308e-06 3.8000000000000002e-04 0.0000000000000000e+00  6.0860139647659593e-06 3.8000000000000002e-04 0.0000000000000000e+00  6.3549273088937166e-06 3.8000000000000002e-04 0.0000000000000000e+00  6.5918513176489694e-06 3.8000000000000002e-04 0.0000000000000000e+00  6.7810885221515239e-06 3.8000000000000002e-04 0.0000000000000000e+00  6.9367735789741589e-06 3.8000000000000002e-04 0.0000000000000000e+00  7.0259298314920493e-06 3.8000000000000002e-04 0.0000000000000000e+00  7.0421872445744383e-06 3.8000000000000002e-04 0.0000000000000000e+00  6.9906257580189338e-06 3.8000000000000002e-04 0.0000000000000000e+00  6.8386473638491251e-06 3.8000000000000002e-04 0.0000000000000000e+00  6.6182366858047215e-06 3.8000000000000002e-04 0.0000000000000000e+00  6.2891506727928996e-06 3.8000000000000002e-04 0.0000000000000000e+00  5.8297097417597970e-06 3.8000000000000002e-04 0.0000000000000000e+00  5.2451581879820189e-06 3.8000000000000002e-04 0.0000000000000000e+00  4.5488554073419204e-06 3.8000000000000002e-04 0.0000000000000000e+00  3.7182678245109233e-06 3.8000000000000002e-04 0.0000000000000000e+00  2.7539961655229249e-06 3.8000000000000002e-04 0.0000000000000000e+00  1.6678048299093377e-06 3.8000000000000002e-04 0.0000000000000000e+00  4.4819694888087588e-07 3.8000000000000002e-04 0.0000000000000000e+00  -8.4993132857032088e-07 3.8000000000000002e-04 0.0000000000000000e+00  -2.3006686029307821e-06 3.8000000000000002e-04 0.0000000000000000e+00  -3.8539128604648577e-06 3.8000000000000002e-04 0.0000000000000000e+00  -5.5037136832599079e-06 3.8000000000000002e-04 0.0000000000000000e+00  -7.2465368448258946e-06 3.8000000000000002e-04 0.0000000000000000e+00  -9.0598605251833650e-06 3.8000000000000002e-04 0.0000000000000000e+00  -1.0954919555012295e-05 3.8000000000000002e-04 0.0000000000000000e+00  -1.2898807561626283e-05 3.8000000000000002e-04 0.0000000000000000e+00  -1.4903586597027679e-05 3.8000000000000002e-04 0.0000000000000000e+00  -1.6944442552560881e-05 3.8000000000000002e-04 0.0000000000000000e+00  -1.9017003208445944e-05 3.8000000000000002e-04 0.0000000000000000e+00  -2.1114562424967867e-05 3.8000000000000002e-04 0.0000000000000000e+00  -2.3237350786055112e-05 3.8000000000000002e-04 0.0000000000000000e+00  -2.5370270914268303e-05 3.8000000000000002e-04 0.0000000000000000e+00  -2.7515485997300746e-05 3.8000000000000002e-04 0.0000000000000000e+00  -2.9665990372616088e-05 3.8000000000000002e-04 0.0000000000000000e+00  -3.1820358135816261e-05 3.8000000000000002e-04 0.0000000000000000e+00  -3.3976629702992029e-05 3.8000000000000002e-04 0.0000000000000000e+00  -3.6133078840959167e-05 3.8000000000000002e-04 0.0000000000000000e+00  -3.8289005669626151e-05 3.8000000000000002e-04 0.0000000000000000e+00  -4.0443547787310933e-05 3.8000000000000002e-04 0.0000000000000000e+00  -4.2597534710244648e-05 3.8000000000000002e-04 0.0000000000000000e+00  -4.4751118671799796e-05 3.8000000000000002e-04 0.0000000000000000e+00  -4.6905182664799105e-05 3.8000000000000002e-04 0.0000000000000000e+00  -4.9058530649038474e-05 3.8000000000000002e-04 0.0000000000000000e+00  -5.1213181597135366e-05 3.8000000000000002e-04 0.0000000000000000e+00  -5.3370949766117138e-05 3.8000000000000002e-04 0.0000000000000000e+00  -5.5532089663777437e-05 3.8000000000000002e-04 0.0000000000000000e+00  -5.7698631131095847e-05 3.8000000000000002e-04 0.0000000000000000e+00  -5.9870936286947422e-05 3.8000000000000002e-04 0.0000000000000000e+00  -6.2049189488999932e-05 3.8000000000000002e-04 0.0000000000000000e+00  -6.4235909364298825e-05 3.8000000000000002e-04 0.0000000000000000e+00  -6.6432199019785803e-05 3.8000000000000002e-04 0.0000000000000000e+00  -6.8639507266115253e-05 3.8000000000000002e-04 0.0000000000000000e+00  -7.0857256745821844e-05 3.8000000000000002e-04 0.0000000000000000e+00  -7.3081865780600831e-05 3.8000000000000002e-04 0.0000000000000000e+00  -7.5321542468889937e-05 3.8000000000000002e-04 0.0000000000000000e+00  -7.7574732822390213e-05 3.8000000000000002e-04 0.0000000000000000e+00  -7.9843931143130077e-05 3.8000000000000002e-04 0.0000000000000000e+00  -8.2118910807197650e-05 3.8000000000000002e-04 0.0000000000000000e+00  -8.4412495146773197e-05 3.8000000000000002e-04 0.0000000000000000e+00  -8.6723344904158283e-05 3.8000000000000002e-04 0.0000000000000000e+00  -8.9042337149367444e-05 3.8000000000000002e-04 0.0000000000000000e+00  -9.1378343216523525e-05 3.8000000000000002e-04 0.0000000000000000e+00  -9.3729139242469399e-05 3.8000000000000002e-04 0.0000000000000000e+00  -9.6095316363424479e-05 3.8000000000000002e-04 0.0000000000000000e+00  -9.8473375685376272e-05 3.8000000000000002e-04 0.0000000000000000e+00  -1.0086183328481494e-04 3.8000000000000002e-04 0.0000000000000000e+00  -1.0326327042922166e-04 3.8000000000000002e-04 0.0000000000000000e+00  -1.0567867832176805e-04 3.8000000000000002e-04 0.0000000000000000e+00  -1.0810314585029781e-04 3.8000000000000002e-04 0.0000000000000000e+00  -1.1053634072412209e-04 3.8000000000000002e-04 0.0000000000000000e+00  -1.1297827215523597e-04 3.8000000000000002e-04 0.0000000000000000e+00  -1.1542913592798788e-04 3.8000000000000002e-04 0.0000000000000000e+00  -1.1788247340702179e-04 3.8000000000000002e-04 0.0000000000000000e+00  -1.2034376743700156e-04 3.8000000000000002e-04 0.0000000000000000e+00  -1.2280247642809707e-04 3.8000000000000002e-04 0.0000000000000000e+00  -1.2526660112686876e-04 3.8000000000000002e-04 0.0000000000000000e+00  -1.2773083354436108e-04 3.8000000000000002e-04 0.0000000000000000e+00  -1.3018844197184003e-04 3.8000000000000002e-04 0.0000000000000000e+00  -1.3264290481086594e-04 3.8000000000000002e-04 0.0000000000000000e+00  -1.3509207152153727e-04 3.8000000000000002e-04 0.0000000000000000e+00  -1.3753196322394143e-04 3.8000000000000002e-04 0.0000000000000000e+00  -1.3995891236201968e-04 3.8000000000000002e-04 0.0000000000000000e+00  -1.4238087673914624e-04 3.8000000000000002e-04 0.0000000000000000e+00  -1.4478400173899406e-04 3.8000000000000002e-04 0.0000000000000000e+00  -1.4716959337418890e-04 3.8000000000000002e-04 0.0000000000000000e+00  -1.4953606594407840e-04 3.8000000000000002e-04 0.0000000000000000e+00  -1.5187837895079236e-04 3.8000000000000002e-04 0.0000000000000000e+00  -1.5420006550474194e-04 3.8000000000000002e-04 0.0000000000000000e+00  -1.5650090946129838e-04 3.8000000000000002e-04 0.0000000000000000e+00  -1.5876253356009444e-04 3.8000000000000002e-04 0.0000000000000000e+00  -1.6100629825812907e-04 3.8000000000000002e-04 0.0000000000000000e+00  -1.6318107932690822e-04 3.7340228699221699e-04 0.0000000000000000e+00  -1.6303180961339193e-04 3.6680261433563385e-04 0.0000000000000000e+00  -1.6282121715847019e-04 3.6020074433184597e-04 0.0000000000000000e+00  -1.6249566867734458e-04 3.5359624097492547e-04 0.0000000000000000e+00  -1.6208853203989335e-04 3.4699997335186630e-04 0.0000000000000000e+00  -1.6157062985841064e-04 3.4038254941135405e-04 0.0000000000000000e+00  -1.6097213837633586e-04 3.3377760849196650e-04 0.0000000000000000e+00  -1.6028339948826053e-04 3.2715505887792259e-04 0.0000000000000000e+00  -1.5949105760289616e-04 3.2052955427922512e-04 0.0000000000000000e+00  -1.5860120688717338e-04 3.1391021891224064e-04 0.0000000000000000e+00  -1.5761713057573938e-04 3.0726728450940959e-04 0.0000000000000000e+00  -1.5653214905548009e-04 3.0062275843024071e-04 0.0000000000000000e+00  -1.5535190643824786e-04 2.9396056996930728e-04 0.0000000000000000e+00  -1.5406306518849549e-04 2.8730707636798495e-04 0.0000000000000000e+00  -1.5267816529655325e-04 2.8061948162238544e-04 0.0000000000000000e+00  -1.5118392078657800e-04 2.7391408354858959e-04 0.0000000000000000e+00  -1.4958036793719613e-04 2.6721141723656756e-04 0.0000000000000000e+00  -1.4787047160182295e-04 2.6047454813677329e-04 0.0000000000000000e+00  -1.4604353524795276e-04 2.5373710445422438e-04 0.0000000000000000e+00  -1.4410316244669189e-04 2.4697098148338637e-04 0.0000000000000000e+00  -1.4205204980797620e-04 2.4016188554369961e-04 0.0000000000000000e+00  -1.3987154199802477e-04 2.3335858187084502e-04 0.0000000000000000e+00  -1.3757408209521583e-04 2.2650209657017371e-04 0.0000000000000000e+00  -1.3513823519259113e-04 2.1963129758287306e-04 0.0000000000000000e+00  -1.3258658308775478e-04 2.1270991810075129e-04 0.0000000000000000e+00  -1.2988462286215167e-04 2.0577619856381344e-04 0.0000000000000000e+00  -1.2706150754454457e-04 1.9876559588834640e-04 0.00000000000000