<?xml version="1.0"?>
<VTKFile type="UnstructuredGrid"  version="0.1"  >
<UnstructuredGrid>
<Piece  NumberOfPoints="16512" NumberOfCells="32424">
<Points>
<DataArray  type="Float64"  NumberOfComponents="3"  format="ascii">-25 4.9 0  25 4.9 0  25 -4.9 0  -25 -4.9 0  -10 0 0  10 0 0  -24.80000000000034 4.9 0  -24.60000000000068 4.9 0  -24.40000000000101 4.9 0  -24.20000000000135 4.9 0  -24.00000000000169 4.9 0  -23.80000000000203 4.9 0  -23.60000000000237 4.9 0  -23.40000000000271 4.9 0  -23.20000000000304 4.9 0  -23.00000000000338 4.9 0  -22.80000000000372 4.9 0  -22.60000000000406 4.9 0  -22.40000000000439 4.9 0  -22.20000000000473 4.9 0  -22.00000000000507 4.9 0  -21.80000000000541 4.9 0  -21.60000000000575 4.9 0  -21.40000000000608 4.9 0  -21.20000000000642 4.9 0  -21.00000000000676 4.9 0  -20.8000000000071 4.9 0  -20.60000000000744 4.9 0  -20.40000000000777 4.9 0  -20.20000000000811 4.9 0  -20.00000000000845 4.9 0  -19.80000000000879 4.9 0  -19.60000000000912 4.9 0  -19.40000000000946 4.9 0  -19.2000000000098 4.9 0  -19.00000000001039 4.9 0  -18.80000000001108 4.9 0  -18.60000000001231 4.9 0  -18.40000000001371 4.9 0  -18.2000000000154 4.9 0  -18.00000000001716 4.9 0  -17.80000000001892 4.9 0  -17.60000000002067 4.9 0  -17.40000000002243 4.9 0  -17.20000000002419 4.9 0  -17.00000000002595 4.9 0  -16.80000000002771 4.9 0  -16.60000000002947 4.9 0  -16.40000000003123 4.9 0  -16.20000000003299 4.9 0  -16.00000000003472 4.9 0  -15.80000000003612 4.9 0  -15.60000000003748 4.9 0  -15.40000000003853 4.9 0  -15.20000000003958 4.9 0  -15.00000000004063 4.9 0  -14.80000000004168 4.9 0  -14.60000000004273 4.9 0  -14.40000000004377 4.9 0  -14.20000000004482 4.9 0  -14.00000000004587 4.9 0  -13.80000000004692 4.9 0  -13.60000000004797 4.9 0  -13.40000000004902 4.9 0  -13.20000000005007 4.9 0  -13.00000000005111 4.9 0  -12.80000000005216 4.9 0  -12.60000000005321 4.9 0  -12.40000000005426 4.9 0  -12.20000000005531 4.9 0  -12.00000000005636 4.9 0  -11.80000000005741 4.9 0  -11.60000000005846 4.9 0  -11.4000000000595 4.9 0  -11.20000000006055 4.9 0  -11.0000000000616 4.9 0  -10.80000000006265 4.9 0  -10.6000000000637 4.9 0  -10.40000000006475 4.9 0  -10.2000000000658 4.9 0  -10.00000000006684 4.9 0  -9.800000000067891 4.9 0  -9.60000000006894 4.9 0  -9.400000000069989 4.9 0  -9.200000000070727 4.9 0  -9.00000000007142 4.9 0  -8.800000000071787 4.9 0  -8.600000000072125 4.9 0  -8.400000000072467 4.9 0  -8.200000000072805 4.9 0  -8.000000000073143 4.9 0  -7.800000000073481 4.9 0  -7.60000000007382 4.9 0  -7.400000000074154 4.9 0  -7.200000000074493 4.9 0  -7.000000000074831 4.9 0  -6.800000000075173 4.9 0  -6.600000000075511 4.9 0  -6.400000000075849 4.9 0  -6.200000000076187 4.9 0  -6.000000000076525 4.9 0  -5.800000000076867 4.9 0  -5.600000000077205 4.9 0  -5.400000000077544 4.9 0  -5.200000000077882 4.9 0  -5.00000000007822 4.9 0  -4.800000000078558 4.9 0  -4.600000000078897 4.9 0  -4.400000000079235 4.9 0  -4.200000000079573 4.9 0  -4.000000000079908 4.9 0  -3.800000000080246 4.9 0  -3.600000000080588 4.9 0  -3.400000000080926 4.9 0  -3.200000000081264 4.9 0  -3.000000000081606 4.9 0  -2.800000000081944 4.9 0  -2.600000000082282 4.9 0  -2.40000000008262 4.9 0  -2.200000000082959 4.9 0  -2.000000000083297 4.9 0  -1.800000000083635 4.9 0  -1.600000000083973 4.9 0  -1.400000000084312 4.9 0  -1.20000000008465 4.9 0  -1.000000000084988 4.9 0  -0.8000000000853262 4.9 0  -0.6000000000856645 4.9 0  -0.4000000000860027 4.9 0  -0.2000000000863409 4.9 0  -8.667910833537462e-11 4.9 0  0.1999999999129827 4.9 0  0.3999999999126409 4.9 0  0.5999999999123027 4.9 0  0.7999999999119716 4.9 0  0.9999999999116262 4.9 0  1.199999999911295 4.9 0  1.39999999991095 4.9 0  1.599999999910619 4.9 0  1.799999999910273 4.9 0  1.999999999909939 4.9 0  2.199999999909597 4.9 0  2.399999999909262 4.9 0  2.599999999908921 4.9 0  2.799999999908582 4.9 0  2.999999999908244 4.9 0  3.199999999907906 4.9 0  3.399999999907564 4.9 0  3.599999999907226 4.9 0  3.799999999906888 4.9 0  3.999999999906549 4.9 0  4.199999999906218 4.9 0  4.399999999905873 4.9 0  4.599999999905542 4.9 0  4.799999999905197 4.9 0  4.999999999904865 4.9 0  5.19999999990452 4.9 0  5.399999999904182 4.9 0  5.599999999903844 4.9 0  5.799999999903505 4.9 0  5.999999999903167 4.9 0  6.199999999902829 4.9 0  6.399999999902491 4.9 0  6.599999999902153 4.9 0  6.799999999902379 4.9 0  6.999999999902752 4.9 0  7.199999999903724 4.9 0  7.399999999904807 4.9 0  7.59999999990589 4.9 0  7.799999999906966 4.9 0  7.999999999908056 4.9 0  8.199999999909132 4.9 0  8.399999999910214 4.9 0  8.59999999991129 4.9 0  8.79999999991238 4.9 0  8.999999999913456 4.9 0  9.199999999914539 4.9 0  9.399999999915622 4.9 0  9.599999999916704 4.9 0  9.79999999991778 4.9 0  9.99999999991887 4.9 0  10.19999999991995 4.9 0  10.39999999992103 4.9 0  10.59999999992212 4.9 0  10.79999999992319 4.9 0  10.99999999992428 4.9 0  11.19999999992536 4.9 0  11.39999999992644 4.9 0  11.59999999992752 4.9 0  11.7999999999286 4.9 0  11.99999999992968 4.9 0  12.19999999993077 4.9 0  12.39999999993184 4.9 0  12.59999999993293 4.9 0  12.79999999993401 4.9 0  12.99999999993509 4.9 0  13.19999999993617 4.9 0  13.39999999993726 4.9 0  13.59999999993834 4.9 0  13.79999999993942 4.9 0  13.99999999994051 4.9 0  14.19999999994158 4.9 0  14.39999999994266 4.9 0  14.59999999994375 4.9 0  14.79999999994483 4.9 0  14.99999999994591 4.9 0  15.199999999947 4.9 0  15.39999999994807 4.9 0  15.59999999994915 4.9 0  15.79999999995024 4.9 0  15.99999999995132 4.9 0  16.1999999999524 4.9 0  16.39999999995349 4.9 0  16.59999999995456 4.9 0  16.79999999995565 4.9 0  16.99999999995674 4.9 0  17.19999999995781 4.9 0  17.39999999995889 4.9 0  17.59999999995997 4.9 0  17.79999999996106 4.9 0  17.99999999996214 4.9 0  18.19999999996322 4.9 0  18.3999999999643 4.9 0  18.59999999996538 4.9 0  18.79999999996646 4.9 0  18.99999999996755 4.9 0  19.19999999996863 4.9 0  19.39999999996971 4.9 0  19.59999999997079 4.9 0  19.79999999997187 4.9 0  19.99999999997296 4.9 0  20.19999999997404 4.9 0  20.39999999997512 4.9 0  20.5999999999762 4.9 0  20.79999999997728 4.9 0  20.99999999997836 4.9 0  21.19999999997945 4.9 0  21.39999999998052 4.9 0  21.59999999998161 4.9 0  21.79999999998269 4.9 0  21.99999999998377 4.9 0  22.19999999998485 4.9 0  22.39999999998594 4.9 0  22.59999999998701 4.9 0  22.7999999999881 4.9 0  22.99999999998919 4.9 0  23.19999999999026 4.9 0  23.39999999999135 4.9 0  23.59999999999243 4.9 0  23.79999999999351 4.9 0  23.99999999999459 4.9 0  24.19999999999568 4.9 0  24.39999999999675 4.9 0  24.59999999999783 4.9 0  24.79999999999892 4.9 0  25 4.700000000000415 0  25 4.500000000000868 0  25 4.300000000001562 0  25 4.100000000001831 0  25 3.900000000002072 0  25 3.700000000002459 0  25 3.500000000003038 0  25 3.300000000003653 0  25 3.100000000004294 0  25 2.900000000004838 0  25 2.700000000005293 0  25 2.500000000005957 0  25 2.300000000006508 0  25 2.100000000007153 0  25 1.900000000007722 0  25 1.700000000008417 0  25 1.500000000008938 0  25 1.30000000000963 0  25 1.100000000010154 0  25 0.9000000000108268 0  25 0.7000000000114559 0  25 0.5000000000119762 0  25 0.3000000000126564 0  25 0.1000000000131926 0  25 -0.09999999998679243 0  25 -0.2999999999874587 0  25 -0.4999999999878586 0  25 -0.6999999999884441 0  25 -0.899999999988804 0  25 -1.099999999989427 0  25 -1.299999999989749 0  25 -1.499999999990411 0  25 -1.69999999999073 0  25 -1.899999999991396 0  25 -2.099999999991715 0  25 -2.299999999992381 0  25 -2.499999999993047 0  25 -2.699999999993714 0  25 -2.899999999994227 0  25 -3.099999999994698 0  25 -3.299999999994673 0  25 -3.499999999995339 0  25 -3.699999999996004 0  25 -3.89999999999667 0  25 -4.099999999997335 0  25 -4.299999999998002 0  25 -4.499999999998668 0  25 -4.699999999999335 0  24.80000000000034 -4.9 0  24.60000000000068 -4.9 0  24.40000000000101 -4.9 0  24.20000000000135 -4.9 0  24.00000000000169 -4.9 0  23.80000000000203 -4.9 0  23.60000000000237 -4.9 0  23.40000000000271 -4.9 0  23.20000000000304 -4.9 0  23.00000000000338 -4.9 0  22.80000000000372 -4.9 0  22.60000000000406 -4.9 0  22.40000000000439 -4.9 0  22.20000000000473 -4.9 0  22.00000000000507 -4.9 0  21.80000000000541 -4.9 0  21.60000000000575 -4.9 0  21.40000000000608 -4.9 0  21.20000000000642 -4.9 0  21.00000000000676 -4.9 0  20.8000000000071 -4.9 0  20.60000000000744 -4.9 0  20.40000000000777 -4.9 0  20.20000000000811 -4.9 0  20.00000000000845 -4.9 0  19.80000000000879 -4.9 0  19.60000000000912 -4.9 0  19.40000000000946 -4.9 0  19.2000000000098 -4.9 0  19.00000000001039 -4.9 0  18.80000000001108 -4.9 0  18.60000000001231 -4.9 0  18.40000000001371 -4.9 0  18.2000000000154 -4.9 0  18.00000000001716 -4.9 0  17.80000000001892 -4.9 0  17.60000000002067 -4.9 0  17.40000000002243 -4.9 0  17.20000000002419 -4.9 0  17.00000000002595 -4.9 0  16.80000000002771 -4.9 0  16.60000000002947 -4.9 0  16.40000000003123 -4.9 0  16.20000000003299 -4.9 0  16.00000000003472 -4.9 0  15.80000000003612 -4.9 0  15.60000000003748 -4.9 0  15.40000000003853 -4.9 0  15.20000000003958 -4.9 0  15.00000000004063 -4.9 0  14.80000000004168 -4.9 0  14.60000000004273 -4.9 0  14.40000000004377 -4.9 0  14.20000000004482 -4.9 0  14.00000000004587 -4.9 0  13.80000000004692 -4.9 0  13.60000000004797 -4.9 0  13.40000000004902 -4.9 0  13.20000000005007 -4.9 0  13.00000000005111 -4.9 0  12.80000000005216 -4.9 0  12.60000000005321 -4.9 0  12.40000000005426 -4.9 0  12.20000000005531 -4.9 0  12.00000000005636 -4.9 0  11.80000000005741 -4.9 0  11.60000000005846 -4.9 0  11.4000000000595 -4.9 0  11.20000000006055 -4.9 0  11.0000000000616 -4.9 0  10.80000000006265 -4.9 0  10.6000000000637 -4.9 0  10.40000000006475 -4.9 0  10.2000000000658 -4.9 0  10.00000000006684 -4.9 0  9.800000000067891 -4.9 0  9.60000000006894 -4.9 0  9.400000000069989 -4.9 0  9.200000000070727 -4.9 0  9.00000000007142 -4.9 0  8.800000000071787 -4.9 0  8.600000000072125 -4.9 0  8.400000000072467 -4.9 0  8.200000000072805 -4.9 0  8.000000000073143 -4.9 
[...]
<PointData  Vectors="f_7"> 
<DataArray  type="Float64"  Name="f_7"  NumberOfComponents="3" format="ascii">3.4154664497322541e-04 8.8500000000000004e-04 0.0000000000000000e+00  -3.4139747344403502e-04 8.8500000000000004e-04 0.0000000000000000e+00  0.0000000000000000e+00 0.0000000000000000e+00 0.0000000000000000e+00  0.0000000000000000e+00 0.0000000000000000e+00 0.0000000000000000e+00  4.6925456725624811e-05 4.3444400069251335e-04 0.0000000000000000e+00  -4.7724565251455315e-05 4.2096547744006896e-04 0.0000000000000000e+00  3.3619255066155625e-04 8.8500000000000004e-04 0.0000000000000000e+00  3.3080581438438744e-04 8.8500000000000004e-04 0.0000000000000000e+00  3.2539104047049991e-04 8.8500000000000004e-04 0.0000000000000000e+00  3.1988218032335766e-04 8.8500000000000004e-04 0.0000000000000000e+00  3.1434895739711698e-04 8.8500000000000004e-04 0.0000000000000000e+00  3.0874523496472630e-04 8.8500000000000004e-04 0.0000000000000000e+00  3.0310875883253653e-04 8.8500000000000004e-04 0.0000000000000000e+00  2.9741179020823481e-04 8.8500000000000004e-04 0.0000000000000000e+00  2.9169822007831501e-04 8.8500000000000004e-04 0.0000000000000000e+00  2.8593171803845049e-04 8.8500000000000004e-04 0.0000000000000000e+00  2.8013317625798402e-04 8.8500000000000004e-04 0.0000000000000000e+00  2.7432693828341757e-04 8.8500000000000004e-04 0.0000000000000000e+00  2.6845877439241739e-04 8.8500000000000004e-04 0.0000000000000000e+00  2.6258785163847133e-04 8.8500000000000004e-04 0.0000000000000000e+00  2.5670485202180311e-04 8.8500000000000004e-04 0.0000000000000000e+00  2.5081249962380966e-04 8.8500000000000004e-04 0.0000000000000000e+00  2.4487631540905835e-04 8.8500000000000004e-04 0.0000000000000000e+00  2.3894739689417246e-04 8.8500000000000004e-04 0.0000000000000000e+00  2.3302485188727261e-04 8.8500000000000004e-04 0.0000000000000000e+00  2.2707342828786296e-04 8.8500000000000004e-04 0.0000000000000000e+00  2.2112903439671616e-04 8.8500000000000004e-04 0.0000000000000000e+00  2.1518775434327007e-04 8.8500000000000004e-04 0.0000000000000000e+00  2.0925642138029785e-04 8.8500000000000004e-04 0.0000000000000000e+00  2.0333828129720497e-04 8.8500000000000004e-04 0.0000000000000000e+00  1.9739682276454518e-04 8.8500000000000004e-04 0.0000000000000000e+00  1.9147236132467234e-04 8.8500000000000004e-04 0.0000000000000000e+00  1.8556347007032118e-04 8.8500000000000004e-04 0.0000000000000000e+00  1.7965850272002516e-04 8.8500000000000004e-04 0.0000000000000000e+00  1.7376374844803584e-04 8.8500000000000004e-04 0.0000000000000000e+00  1.6788034816066769e-04 8.8500000000000004e-04 0.0000000000000000e+00  1.6200011077214586e-04 8.8500000000000004e-04 0.0000000000000000e+00  1.5612916860127289e-04 8.8500000000000004e-04 0.0000000000000000e+00  1.5026864225694764e-04 8.8500000000000004e-04 0.0000000000000000e+00  1.4441863709668137e-04 8.8500000000000004e-04 0.0000000000000000e+00  1.3855876515448510e-04 8.8500000000000004e-04 0.0000000000000000e+00  1.3270867234518538e-04 8.8500000000000004e-04 0.0000000000000000e+00  1.2685615422479882e-04 8.8500000000000004e-04 0.0000000000000000e+00  1.2100434255358909e-04 8.8500000000000004e-04 0.0000000000000000e+00  1.1514267913138828e-04 8.8500000000000004e-04 0.0000000000000000e+00  1.0927570804821087e-04 8.8500000000000004e-04 0.0000000000000000e+00  1.0339943997477747e-04 8.8500000000000004e-04 0.0000000000000000e+00  9.7507515214821503e-05 8.8500000000000004e-04 0.0000000000000000e+00  9.1596192562411026e-05 8.8500000000000004e-04 0.0000000000000000e+00  8.5663129412577262e-05 8.8500000000000004e-04 0.0000000000000000e+00  7.9703097680124235e-05 8.8500000000000004e-04 0.0000000000000000e+00  7.3713041315517187e-05 8.8500000000000004e-04 0.0000000000000000e+00  6.7691995117590489e-05 8.8500000000000004e-04 0.0000000000000000e+00  6.1629383801243800e-05 8.8500000000000004e-04 0.0000000000000000e+00  5.5522520477412086e-05 8.8500000000000004e-04 0.0000000000000000e+00  4.9376473212717326e-05 8.8500000000000004e-04 0.0000000000000000e+00  4.3179111730344541e-05 8.8500000000000004e-04 0.0000000000000000e+00  3.6933346189993481e-05 8.8500000000000004e-04 0.0000000000000000e+00  3.0636614892219115e-05 8.8500000000000004e-04 0.0000000000000000e+00  2.4269216459739731e-05 8.8500000000000004e-04 0.0000000000000000e+00  1.7876704027344553e-05 8.8500000000000004e-04 0.0000000000000000e+00  1.1427142693418995e-05 8.8500000000000004e-04 0.0000000000000000e+00  4.9314184794307507e-06 8.8500000000000004e-04 0.0000000000000000e+00  -1.6112770096398013e-06 8.8500000000000004e-04 0.0000000000000000e+00  -8.1777140626308151e-06 8.8500000000000004e-04 0.0000000000000000e+00  -1.4777599611832861e-05 8.8500000000000004e-04 0.0000000000000000e+00  -2.1343559606765707e-05 8.8500000000000004e-04 0.0000000000000000e+00  -2.7905528345191411e-05 8.8500000000000004e-04 0.0000000000000000e+00  -3.4431071863820690e-05 8.8500000000000004e-04 0.0000000000000000e+00  -4.0908148060102287e-05 8.8500000000000004e-04 0.0000000000000000e+00  -4.7305377605463067e-05 8.8500000000000004e-04 0.0000000000000000e+00  -5.3538795244989260e-05 8.8500000000000004e-04 0.0000000000000000e+00  -5.9606477662085353e-05 8.8500000000000004e-04 0.0000000000000000e+00  -6.5416867631750312e-05 8.8500000000000004e-04 0.0000000000000000e+00  -7.1030455186974623e-05 8.8500000000000004e-04 0.0000000000000000e+00  -7.6425800235469551e-05 8.8500000000000004e-04 0.0000000000000000e+00  -8.1451886876028254e-05 8.8500000000000004e-04 0.0000000000000000e+00  -8.6038591328771246e-05 8.8500000000000004e-04 0.0000000000000000e+00  -9.0231687563170472e-05 8.8500000000000004e-04 0.0000000000000000e+00  -9.4076771557937032e-05 8.8500000000000004e-04 0.0000000000000000e+00  -9.7346794216030642e-05 8.8500000000000004e-04 0.0000000000000000e+00  -1.0021199481523294e-04 8.8500000000000004e-04 0.0000000000000000e+00  -1.0256574287280088e-04 8.8500000000000004e-04 0.0000000000000000e+00  -1.0436613148479829e-04 8.8500000000000004e-04 0.0000000000000000e+00  -1.0569086569410306e-04 8.8500000000000004e-04 0.0000000000000000e+00  -1.0656068742184079e-04 8.8500000000000004e-04 0.0000000000000000e+00  -1.0694524286299992e-04 8.8500000000000004e-04 0.0000000000000000e+00  -1.0686211307350812e-04 8.8500000000000004e-04 0.0000000000000000e+00  -1.0633414458188371e-04 8.8500000000000004e-04 0.0000000000000000e+00  -1.0540191552209524e-04 8.8500000000000004e-04 0.0000000000000000e+00  -1.0415255970076669e-04 8.8500000000000004e-04 0.0000000000000000e+00  -1.0260029866142780e-04 8.8500000000000004e-04 0.0000000000000000e+00  -1.0071750222107269e-04 8.8500000000000004e-04 0.0000000000000000e+00  -9.8556970318216980e-05 8.8500000000000004e-04 0.0000000000000000e+00  -9.6226128683750813e-05 8.8500000000000004e-04 0.0000000000000000e+00  -9.3717181267181018e-05 8.8500000000000004e-04 0.0000000000000000e+00  -9.1060630957062963e-05 8.8500000000000004e-04 0.0000000000000000e+00  -8.8235933833377079e-05 8.8500000000000004e-04 0.0000000000000000e+00  -8.5335682787493166e-05 8.8500000000000004e-04 0.0000000000000000e+00  -8.2362902678794500e-05 8.8500000000000004e-04 0.0000000000000000e+00  -7.9349839149048929e-05 8.8500000000000004e-04 0.0000000000000000e+00  -7.6271389891472259e-05 8.8500000000000004e-04 0.0000000000000000e+00  -7.3194128228214184e-05 8.8500000000000004e-04 0.0000000000000000e+00  -7.0118360649802620e-05 8.8500000000000004e-04 0.0000000000000000e+00  -6.7045045673224161e-05 8.8500000000000004e-04 0.0000000000000000e+00  -6.3988257150813092e-05 8.8500000000000004e-04 0.0000000000000000e+00  -6.0963956953650462e-05 8.8500000000000004e-04 0.0000000000000000e+00  -5.7979369608256546e-05 8.8500000000000004e-04 0.0000000000000000e+00  -5.5008076153737592e-05 8.8500000000000004e-04 0.0000000000000000e+00  -5.2092129238243861e-05 8.8500000000000004e-04 0.0000000000000000e+00  -4.9223462337397878e-05 8.8500000000000004e-04 0.0000000000000000e+00  -4.6405584923337292e-05 8.8500000000000004e-04 0.0000000000000000e+00  -4.3639930462246436e-05 8.8500000000000004e-04 0.0000000000000000e+00  -4.0915291629889099e-05 8.8500000000000004e-04 0.0000000000000000e+00  -3.8241316589072946e-05 8.8500000000000004e-04 0.0000000000000000e+00  -3.5618265988620883e-05 8.8500000000000004e-04 0.0000000000000000e+00  -3.3041307605275315e-05 8.8500000000000004e-04 0.0000000000000000e+00  -3.0511138989705192e-05 8.8500000000000004e-04 0.0000000000000000e+00  -2.8013469850862468e-05 8.8500000000000004e-04 0.0000000000000000e+00  -2.5560165519774189e-05 8.8500000000000004e-04 0.0000000000000000e+00  -2.3141308051292131e-05 8.8500000000000004e-04 0.0000000000000000e+00  -2.0758792989668908e-05 8.8500000000000004e-04 0.0000000000000000e+00  -1.8404931794764440e-05 8.8500000000000004e-04 0.0000000000000000e+00  -1.6080806928414836e-05 8.8500000000000004e-04 0.0000000000000000e+00  -1.3781565204712422e-05 8.8500000000000004e-04 0.0000000000000000e+00  -1.1503974646856316e-05 8.8500000000000004e-04 0.0000000000000000e+00  -9.2458263304441545e-06 8.8500000000000004e-04 0.0000000000000000e+00  -7.0035213606998706e-06 8.8500000000000004e-04 0.0000000000000000e+00  -4.7734057972785913e-06 8.8500000000000004e-04 0.0000000000000000e+00  -2.5513768522140106e-06 8.8500000000000004e-04 0.0000000000000000e+00  -3.3621511328546713e-07 8.8500000000000004e-04 0.0000000000000000e+00  1.8751836503776965e-06 8.8500000000000004e-04 0.0000000000000000e+00  4.0879769989170507e-06 8.8500000000000004e-04 0.0000000000000000e+00  6.3038458535159310e-06 8.8500000000000004e-04 0.0000000000000000e+00  8.5269318388423210e-06 8.8500000000000004e-04 0.0000000000000000e+00  1.0759400442358353e-05 8.8500000000000004e-04 0.0000000000000000e+00  1.3006320969805983e-05 8.8500000000000004e-04 0.0000000000000000e+00  1.5271199350029665e-05 8.8500000000000004e-04 0.0000000000000000e+00  1.7559191504997379e-05 8.8500000000000004e-04 0.0000000000000000e+00  1.9872535112054814e-05 8.8500000000000004e-04 0.0000000000000000e+00  2.2210474406266694e-05 8.8500000000000004e-04 0.0000000000000000e+00  2.4580982091105923e-05 8.8500000000000004e-04 0.0000000000000000e+00  2.6987516726798371e-05 8.8500000000000004e-04 0.0000000000000000e+00  2.9432858198579332e-05 8.8500000000000004e-04 0.0000000000000000e+00  3.1919238006641729e-05 8.8500000000000004e-04 0.0000000000000000e+00  3.4451647156467161e-05 8.8500000000000004e-04 0.0000000000000000e+00  3.7027237995976818e-05 8.8500000000000004e-04 0.0000000000000000e+00  3.9656256539659776e-05 8.8500000000000004e-04 0.0000000000000000e+00  4.2337521253016097e-05 8.8500000000000004e-04 0.0000000000000000e+00  4.5059525817024968e-05 8.8500000000000004e-04 0.0000000000000000e+00  4.7840465253436603e-05 8.8500000000000004e-04 0.0000000000000000e+00  5.0673911524532660e-05 8.8500000000000004e-04 0.0000000000000000e+00  5.3556341805393661e-05 8.8500000000000004e-04 0.0000000000000000e+00  5.6488304372354332e-05 8.8500000000000004e-04 0.0000000000000000e+00  5.9461978220577321e-05 8.8500000000000004e-04 0.0000000000000000e+00  6.2501898020067125e-05 8.8500000000000004e-04 0.0000000000000000e+00  6.5546108340864531e-05 8.8500000000000004e-04 0.0000000000000000e+00  6.8626769337809296e-05 8.8500000000000004e-04 0.0000000000000000e+00  7.1732743888469402e-05 8.8500000000000004e-04 0.0000000000000000e+00  7.4856041748052514e-05 8.8500000000000004e-04 0.0000000000000000e+00  7.7953261950841678e-05 8.8500000000000004e-04 0.0000000000000000e+00  8.1039141406299506e-05 8.8500000000000004e-04 0.0000000000000000e+00  8.4081491024980980e-05 8.8500000000000004e-04 0.0000000000000000e+00  8.7066796922470705e-05 8.8500000000000004e-04 0.0000000000000000e+00  8.9980400804828592e-05 8.8500000000000004e-04 0.0000000000000000e+00  9.2741176509169340e-05 8.8500000000000004e-04 0.0000000000000000e+00  9.5359290717410099e-05 8.8500000000000004e-04 0.0000000000000000e+00  9.7768493736458486e-05 8.8500000000000004e-04 0.0000000000000000e+00  1.0003644770674455e-04 8.8500000000000004e-04 0.0000000000000000e+00  1.0201966246934342e-04 8.8500000000000004e-04 0.0000000000000000e+00  1.0369505985024478e-04 8.8500000000000004e-04 0.0000000000000000e+00  1.0508815812438591e-04 8.8500000000000004e-04 0.0000000000000000e+00  1.0606276611191971e-04 8.8500000000000004e-04 0.0000000000000000e+00  1.0675908295682366e-04 8.8500000000000004e-04 0.0000000000000000e+00  1.0700797352334245e-04 8.8500000000000004e-04 0.0000000000000000e+00  1.0672600272118303e-04 8.8500000000000004e-04 0.0000000000000000e+00  1.0592725390720955e-04 8.8500000000000004e-04 0.0000000000000000e+00  1.0468278174136835e-04 8.8500000000000004e-04 0.0000000000000000e+00  1.0289928540877370e-04 8.8500000000000004e-04 0.0000000000000000e+00  1.0058215020374634e-04 8.8500000000000004e-04 0.0000000000000000e+00  9.7787091135283975e-05 8.8500000000000004e-04 0.0000000000000000e+00  9.4459158658095787e-05 8.8500000000000004e-04 0.0000000000000000e+00  9.0838155826178377e-05 8.8500000000000004e-04 0.0000000000000000e+00  8.6605593548324126e-05 8.8500000000000004e-04 0.0000000000000000e+00  8.1983761427995963e-05 8.8500000000000004e-04 0.0000000000000000e+00  7.6995544518580091e-05 8.8500000000000004e-04 0.0000000000000000e+00  7.1658726023956663e-05 8.8500000000000004e-04 0.0000000000000000e+00  6.6069265626303051e-05 8.8500000000000004e-04 0.0000000000000000e+00  6.0171199844939978e-05 8.8500000000000004e-04 0.0000000000000000e+00  5.4112267110176472e-05 8.8500000000000004e-04 0.0000000000000000e+00  4.7840413347158228e-05 8.8500000000000004e-04 0.0000000000000000e+00  4.1457390288040201e-05 8.8500000000000004e-04 0.0000000000000000e+00  3.4983110058911339e-05 8.8500000000000004e-04 0.0000000000000000e+00  2.8449790821918840e-05 8.8500000000000004e-04 0.0000000000000000e+00  2.1848019261340720e-05 8.8500000000000004e-04 0.0000000000000000e+00  1.5250066830978751e-05 8.8500000000000004e-04 0.0000000000000000e+00  8.6444317108550940e-06 8.8500000000000004e-04 0.0000000000000000e+00  2.0604179619852370e-06 8.8500000000000004e-04 0.0000000000000000e+00  -4.4940080661261765e-06 8.8500000000000004e-04 0.0000000000000000e+00  -1.1008929315978229e-05 8.8500000000000004e-04 0.0000000000000000e+00  -1.7479286139244538e-05 8.8500000000000004e-04 0.0000000000000000e+00  -2.3898655310193845e-05 8.8500000000000004e-04 0.0000000000000000e+00  -3.0261618879924339e-05 8.8500000000000004e-04 0.0000000000000000e+00  -3.6583004446979865e-05 8.8500000000000004e-04 0.0000000000000000e+00  -4.2844351575142478e-05 8.8500000000000004e-04 0.0000000000000000e+00  -4.9049290599525377e-05 8.8500000000000004e-04 0.0000000000000000e+00  -5.5215503860898817e-05 8.8500000000000004e-04 0.0000000000000000e+00  -6.1328136190761678e-05 8.8500000000000004e-04 0.0000000000000000e+00  -6.7402195706333818e-05 8.8500000000000004e-04 0.0000000000000000e+00  -7.3436640021413180e-05 8.8500000000000004e-04 0.0000000000000000e+00  -7.9436888294812696e-05 8.8500000000000004e-04 0.0000000000000000e+00  -8.5406070756256148e-05 8.8500000000000004e-04 0.0000000000000000e+00  -9.1344808891617585e-05 8.8500000000000004e-04 0.0000000000000000e+00  -9.7263351580664030e-05 8.8500000000000004e-04 0.0000000000000000e+00  -1.0316375889499075e-04 8.8500000000000004e-04 0.0000000000000000e+00  -1.0905016646369608e-04 8.8500000000000004e-04 0.0000000000000000e+00  -1.1492461790488421e-04 8.8500000000000004e-04 0.0000000000000000e+00  -1.2078529633775097e-04 8.8500000000000004e-04 0.0000000000000000e+00  -1.2664270714623387e-04 8.8500000000000004e-04 0.0000000000000000e+00  -1.3249982645536398e-04 8.8500000000000004e-04 0.0000000000000000e+00  -1.3836054485858389e-04 8.8500000000000004e-04 0.0000000000000000e+00  -1.4421168666754218e-04 8.8500000000000004e-04 0.0000000000000000e+00  -1.5007298500680340e-04 8.8500000000000004e-04 0.0000000000000000e+00  -1.5594370091345046e-04 8.8500000000000004e-04 0.0000000000000000e+00  -1.6181047416100115e-04 8.8500000000000004e-04 0.0000000000000000e+00  -1.6769018917633274e-04 8.8500000000000004e-04 0.0000000000000000e+00  -1.7358022469507077e-04 8.8500000000000004e-04 0.0000000000000000e+00  -1.7948232453802516e-04 8.8500000000000004e-04 0.0000000000000000e+00  -1.8538986686924517e-04 8.8500000000000004e-04 0.0000000000000000e+00  -1.9129939213965012e-04 8.8500000000000004e-04 0.0000000000000000e+00  -1.9721962446088629e-04 8.8500000000000004e-04 0.0000000000000000e+00  -2.0315237374543365e-04 8.8500000000000004e-04 0.0000000000000000e+00  -2.0908667551801193e-04 8.8500000000000004e-04 0.0000000000000000e+00  -2.1502416154961797e-04 8.8500000000000004e-04 0.0000000000000000e+00  -2.2096445055611128e-04 8.8500000000000004e-04 0.0000000000000000e+00  -2.2691006793715870e-04 8.8500000000000004e-04 0.0000000000000000e+00  -2.3284716298798151e-04 8.8500000000000004e-04 0.0000000000000000e+00  -2.3878717447302610e-04 8.8500000000000004e-04 0.0000000000000000e+00  -2.4471090240211661e-04 8.8500000000000004e-04 0.0000000000000000e+00  -2.5063345991006549e-04 8.8500000000000004e-04 0.0000000000000000e+00  -2.5654511262489677e-04 8.8500000000000004e-04 0.0000000000000000e+00  -2.6243260361376715e-04 8.8500000000000004e-04 0.0000000000000000e+00  -2.6830385150931386e-04 8.8500000000000004e-04 0.0000000000000000e+00  -2.7415522175889157e-04 8.8500000000000004e-04 0.0000000000000000e+00  -2.7997900890340809e-04 8.8500000000000004e-04 0.0000000000000000e+00  -2.8576827717139688e-04 8.8500000000000004e-04 0.0000000000000000e+00  -2.9154026400370097e-04 8.8500000000000004e-04 0.0000000000000000e+00  -2.9726734282998596e-04 8.8500000000000004e-04 0.0000000000000000e+00  -3.0295316200648788e-04 8.8500000000000004e-04 0.0000000000000000e+00  -3.0859532469433408e-04 8.8500000000000004e-04 0.0000000000000000e+00  -3.1418498329070370e-04 8.8500000000000004e-04 0.0000000000000000e+00  -3.1973004860161828e-04 8.8500000000000004e-04 0.0000000000000000e+00  -3.2523059324236975e-04 8.8500000000000004e-04 0.0000000000000000e+00  -3.3065358880283329e-04 8.8500000000000004e-04 0.0000000000000000e+00  -3.3604057767146981e-04 8.8500000000000004e-04 0.0000000000000000e+00  -3.4129678016018851e-04 8.6909567523731383e-04 0.0000000000000000e+00  -3.4101703571498473e-04 8.5318893722910916e-04 0.0000000000000000e+00  -3.4062279858712704e-04 8.3728002545803795e-04 0.0000000000000000e+00  -3.4001195747985363e-04 8.2136892823239562e-04 0.0000000000000000e+00  -3.3924731832188701e-04 8.0547782798551964e-04 0.0000000000000000e+00  -3.3827400268252489e-04 7.8955081875959200e-04 0.0000000000000000e+00  -3.3714795260891324e-04 7.7365340551606941e-04 0.0000000000000000e+00  -3.3584959525063686e-04 7.5772963929441174e-04 0.0000000000000000e+00  -3.3435303886723583e-04 7.4180784585973125e-04 0.0000000000000000e+00  -3.3267113850651522e-04 7.2590685705400872e-04 0.0000000000000000e+00  -3.3080427181448344e-04 7.0996994322244076e-04 0.0000000000000000e+00  -3.2874448087591792e-04 6.9404011555220478e-04 0.0000000000000000e+00  -3.2649524599243681e-04 6.7808716408755091e-04 0.0000000000000000e+00  -3.2403487788921939e-04 6.6216404762323622e-04 0.0000000000000000e+00  -3.2138309742970320e-04 6.4618557270763020e-04 0.0000000000000000e+00  -3.1851213203728813e-04 6.3018533032956298e-04 0.0000000000000000e+00  -3.1542443722120230e-04 6.1420566019637093e-04 0.0000000000000000e+00  -3.1211753018729087e-04 5.9817220662475410e-04 0.0000000000000000e+00  -3.0857625349252674e-04 5.8215375340207529e-04 0.0000000000000000e+00  -3.0480207967199433e-04 5.6609488728972331e-04 0.0000000000000000e+00  -3.0079461788188981e-04 5.4996442630037142e-04 0.0000000000000000e+00  -2.9652386528728180e-04 5.3386457508215594e-04 0.0000000000000000e+00  -2.9200203032423062e-04 5.1767245399629189e-04 0.0000000000000000e+00  -2.8719607165933182e-04 5.0146987326829485e-04 0.0000000000000000e+00  -2.8213678677671387e-04 4.8518117495190301e-04 0.0000000000000000e+00  -2.7676284214164196e-04 4.6888861301009645e-04 0.0000000000000000e+00  -2.7111993399266392e-04 4.5245418896405889e-04 0.0000000000000000e+00  