<?xml version="1.0"?>
<VTKFile type="UnstructuredGrid"  version="0.1"  >
<UnstructuredGrid>
<Piece  NumberOfPoints="16512" NumberOfCells="32424">
<Points>
<DataArray  type="Float64"  NumberOfComponents="3"  format="ascii">-25 4.9 0  25 4.9 0  25 -4.9 0  -25 -4.9 0  -10 0 0  10 0 0  -24.80000000000034 4.9 0  -24.60000000000068 4.9 0  -24.40000000000101 4.9 0  -24.20000000000135 4.9 0  -24.00000000000169 4.9 0  -23.80000000000203 4.9 0  -23.60000000000237 4.9 0  -23.40000000000271 4.9 0  -23.20000000000304 4.9 0  -23.00000000000338 4.9 0  -22.80000000000372 4.9 0  -22.60000000000406 4.9 0  -22.40000000000439 4.9 0  -22.20000000000473 4.9 0  -22.00000000000507 4.9 0  -21.80000000000541 4.9 0  -21.60000000000575 4.9 0  -21.40000000000608 4.9 0  -21.20000000000642 4.9 0  -21.00000000000676 4.9 0  -20.8000000000071 4.9 0  -20.60000000000744 4.9 0  -20.40000000000777 4.9 0  -20.20000000000811 4.9 0  -20.00000000000845 4.9 0  -19.80000000000879 4.9 0  -19.60000000000912 4.9 0  -19.40000000000946 4.9 0  -19.2000000000098 4.9 0  -19.00000000001039 4.9 0  -18.80000000001108 4.9 0  -18.60000000001231 4.9 0  -18.40000000001371 4.9 0  -18.2000000000154 4.9 0  -18.00000000001716 4.9 0  -17.80000000001892 4.9 0  -17.60000000002067 4.9 0  -17.40000000002243 4.9 0  -17.20000000002419 4.9 0  -17.00000000002595 4.9 0  -16.80000000002771 4.9 0  -16.60000000002947 4.9 0  -16.40000000003123 4.9 0  -16.20000000003299 4.9 0  -16.00000000003472 4.9 0  -15.80000000003612 4.9 0  -15.60000000003748 4.9 0  -15.40000000003853 4.9 0  -15.20000000003958 4.9 0  -15.00000000004063 4.9 0  -14.80000000004168 4.9 0  -14.60000000004273 4.9 0  -14.40000000004377 4.9 0  -14.20000000004482 4.9 0  -14.00000000004587 4.9 0  -13.80000000004692 4.9 0  -13.60000000004797 4.9 0  -13.40000000004902 4.9 0  -13.20000000005007 4.9 0  -13.00000000005111 4.9 0  -12.80000000005216 4.9 0  -12.60000000005321 4.9 0  -12.40000000005426 4.9 0  -12.20000000005531 4.9 0  -12.00000000005636 4.9 0  -11.80000000005741 4.9 0  -11.60000000005846 4.9 0  -11.4000000000595 4.9 0  -11.20000000006055 4.9 0  -11.0000000000616 4.9 0  -10.80000000006265 4.9 0  -10.6000000000637 4.9 0  -10.40000000006475 4.9 0  -10.2000000000658 4.9 0  -10.00000000006684 4.9 0  -9.800000000067891 4.9 0  -9.60000000006894 4.9 0  -9.400000000069989 4.9 0  -9.200000000070727 4.9 0  -9.00000000007142 4.9 0  -8.800000000071787 4.9 0  -8.600000000072125 4.9 0  -8.400000000072467 4.9 0  -8.200000000072805 4.9 0  -8.000000000073143 4.9 0  -7.800000000073481 4.9 0  -7.60000000007382 4.9 0  -7.400000000074154 4.9 0  -7.200000000074493 4.9 0  -7.000000000074831 4.9 0  -6.800000000075173 4.9 0  -6.600000000075511 4.9 0  -6.400000000075849 4.9 0  -6.200000000076187 4.9 0  -6.000000000076525 4.9 0  -5.800000000076867 4.9 0  -5.600000000077205 4.9 0  -5.400000000077544 4.9 0  -5.200000000077882 4.9 0  -5.00000000007822 4.9 0  -4.800000000078558 4.9 0  -4.600000000078897 4.9 0  -4.400000000079235 4.9 0  -4.200000000079573 4.9 0  -4.000000000079908 4.9 0  -3.800000000080246 4.9 0  -3.600000000080588 4.9 0  -3.400000000080926 4.9 0  -3.200000000081264 4.9 0  -3.000000000081606 4.9 0  -2.800000000081944 4.9 0  -2.600000000082282 4.9 0  -2.40000000008262 4.9 0  -2.200000000082959 4.9 0  -2.000000000083297 4.9 0  -1.800000000083635 4.9 0  -1.600000000083973 4.9 0  -1.400000000084312 4.9 0  -1.20000000008465 4.9 0  -1.000000000084988 4.9 0  -0.8000000000853262 4.9 0  -0.6000000000856645 4.9 0  -0.4000000000860027 4.9 0  -0.2000000000863409 4.9 0  -8.667910833537462e-11 4.9 0  0.1999999999129827 4.9 0  0.3999999999126409 4.9 0  0.5999999999123027 4.9 0  0.7999999999119716 4.9 0  0.9999999999116262 4.9 0  1.199999999911295 4.9 0  1.39999999991095 4.9 0  1.599999999910619 4.9 0  1.799999999910273 4.9 0  1.999999999909939 4.9 0  2.199999999909597 4.9 0  2.399999999909262 4.9 0  2.599999999908921 4.9 0  2.799999999908582 4.9 0  2.999999999908244 4.9 0  3.199999999907906 4.9 0  3.399999999907564 4.9 0  3.599999999907226 4.9 0  3.799999999906888 4.9 0  3.999999999906549 4.9 0  4.199999999906218 4.9 0  4.399999999905873 4.9 0  4.599999999905542 4.9 0  4.799999999905197 4.9 0  4.999999999904865 4.9 0  5.19999999990452 4.9 0  5.399999999904182 4.9 0  5.599999999903844 4.9 0  5.799999999903505 4.9 0  5.999999999903167 4.9 0  6.199999999902829 4.9 0  6.399999999902491 4.9 0  6.599999999902153 4.9 0  6.799999999902379 4.9 0  6.999999999902752 4.9 0  7.199999999903724 4.9 0  7.399999999904807 4.9 0  7.59999999990589 4.9 0  7.799999999906966 4.9 0  7.999999999908056 4.9 0  8.199999999909132 4.9 0  8.399999999910214 4.9 0  8.59999999991129 4.9 0  8.79999999991238 4.9 0  8.999999999913456 4.9 0  9.199999999914539 4.9 0  9.399999999915622 4.9 0  9.599999999916704 4.9 0  9.79999999991778 4.9 0  9.99999999991887 4.9 0  10.19999999991995 4.9 0  10.39999999992103 4.9 0  10.59999999992212 4.9 0  10.79999999992319 4.9 0  10.99999999992428 4.9 0  11.19999999992536 4.9 0  11.39999999992644 4.9 0  11.59999999992752 4.9 0  11.7999999999286 4.9 0  11.99999999992968 4.9 0  12.19999999993077 4.9 0  12.39999999993184 4.9 0  12.59999999993293 4.9 0  12.79999999993401 4.9 0  12.99999999993509 4.9 0  13.19999999993617 4.9 0  13.39999999993726 4.9 0  13.59999999993834 4.9 0  13.79999999993942 4.9 0  13.99999999994051 4.9 0  14.19999999994158 4.9 0  14.39999999994266 4.9 0  14.59999999994375 4.9 0  14.79999999994483 4.9 0  14.99999999994591 4.9 0  15.199999999947 4.9 0  15.39999999994807 4.9 0  15.59999999994915 4.9 0  15.79999999995024 4.9 0  15.99999999995132 4.9 0  16.1999999999524 4.9 0  16.39999999995349 4.9 0  16.59999999995456 4.9 0  16.79999999995565 4.9 0  16.99999999995674 4.9 0  17.19999999995781 4.9 0  17.39999999995889 4.9 0  17.59999999995997 4.9 0  17.79999999996106 4.9 0  17.99999999996214 4.9 0  18.19999999996322 4.9 0  18.3999999999643 4.9 0  18.59999999996538 4.9 0  18.79999999996646 4.9 0  18.99999999996755 4.9 0  19.19999999996863 4.9 0  19.39999999996971 4.9 0  19.59999999997079 4.9 0  19.79999999997187 4.9 0  19.99999999997296 4.9 0  20.19999999997404 4.9 0  20.39999999997512 4.9 0  20.5999999999762 4.9 0  20.79999999997728 4.9 0  20.99999999997836 4.9 0  21.19999999997945 4.9 0  21.39999999998052 4.9 0  21.59999999998161 4.9 0  21.79999999998269 4.9 0  21.99999999998377 4.9 0  22.19999999998485 4.9 0  22.39999999998594 4.9 0  22.59999999998701 4.9 0  22.7999999999881 4.9 0  22.99999999998919 4.9 0  23.19999999999026 4.9 0  23.39999999999135 4.9 0  23.59999999999243 4.9 0  23.79999999999351 4.9 0  23.99999999999459 4.9 0  24.19999999999568 4.9 0  24.39999999999675 4.9 0  24.59999999999783 4.9 0  24.79999999999892 4.9 0  25 4.700000000000415 0  25 4.500000000000868 0  25 4.300000000001562 0  25 4.100000000001831 0  25 3.900000000002072 0  25 3.700000000002459 0  25 3.500000000003038 0  25 3.300000000003653 0  25 3.100000000004294 0  25 2.900000000004838 0  25 2.700000000005293 0  25 2.500000000005957 0  25 2.300000000006508 0  25 2.100000000007153 0  25 1.900000000007722 0  25 1.700000000008417 0  25 1.500000000008938 0  25 1.30000000000963 0  25 1.100000000010154 0  25 0.9000000000108268 0  25 0.7000000000114559 0  25 0.5000000000119762 0  25 0.3000000000126564 0  25 0.1000000000131926 0  25 -0.09999999998679243 0  25 -0.2999999999874587 0  25 -0.4999999999878586 0  25 -0.6999999999884441 0  25 -0.899999999988804 0  25 -1.099999999989427 0  25 -1.299999999989749 0  25 -1.499999999990411 0  25 -1.69999999999073 0  25 -1.899999999991396 0  25 -2.099999999991715 0  25 -2.299999999992381 0  25 -2.499999999993047 0  25 -2.699999999993714 0  25 -2.899999999994227 0  25 -3.099999999994698 0  25 -3.299999999994673 0  25 -3.499999999995339 0  25 -3.699999999996004 0  25 -3.89999999999667 0  25 -4.099999999997335 0  25 -4.299999999998002 0  25 -4.499999999998668 0  25 -4.699999999999335 0  24.80000000000034 -4.9 0  24.60000000000068 -4.9 0  24.40000000000101 -4.9 0  24.20000000000135 -4.9 0  24.00000000000169 -4.9 0  23.80000000000203 -4.9 0  23.60000000000237 -4.9 0  23.40000000000271 -4.9 0  23.20000000000304 -4.9 0  23.00000000000338 -4.9 0  22.80000000000372 -4.9 0  22.60000000000406 -4.9 0  22.40000000000439 -4.9 0  22.20000000000473 -4.9 0  22.00000000000507 -4.9 0  21.80000000000541 -4.9 0  21.60000000000575 -4.9 0  21.40000000000608 -4.9 0  21.20000000000642 -4.9 0  21.00000000000676 -4.9 0  20.8000000000071 -4.9 0  20.60000000000744 -4.9 0  20.40000000000777 -4.9 0  20.20000000000811 -4.9 0  20.00000000000845 -4.9 0  19.80000000000879 -4.9 0  19.60000000000912 -4.9 0  19.40000000000946 -4.9 0  19.2000000000098 -4.9 0  19.00000000001039 -4.9 0  18.80000000001108 -4.9 0  18.60000000001231 -4.9 0  18.40000000001371 -4.9 0  18.2000000000154 -4.9 0  18.00000000001716 -4.9 0  17.80000000001892 -4.9 0  17.60000000002067 -4.9 0  17.40000000002243 -4.9 0  17.20000000002419 -4.9 0  17.00000000002595 -4.9 0  16.80000000002771 -4.9 0  16.60000000002947 -4.9 0  16.40000000003123 -4.9 0  16.20000000003299 -4.9 0  16.00000000003472 -4.9 0  15.80000000003612 -4.9 0  15.60000000003748 -4.9 0  15.40000000003853 -4.9 0  15.20000000003958 -4.9 0  15.00000000004063 -4.9 0  14.80000000004168 -4.9 0  14.60000000004273 -4.9 0  14.40000000004377 -4.9 0  14.20000000004482 -4.9 0  14.00000000004587 -4.9 0  13.80000000004692 -4.9 0  13.60000000004797 -4.9 0  13.40000000004902 -4.9 0  13.20000000005007 -4.9 0  13.00000000005111 -4.9 0  12.80000000005216 -4.9 0  12.60000000005321 -4.9 0  12.40000000005426 -4.9 0  12.20000000005531 -4.9 0  12.00000000005636 -4.9 0  11.80000000005741 -4.9 0  11.60000000005846 -4.9 0  11.4000000000595 -4.9 0  11.20000000006055 -4.9 0  11.0000000000616 -4.9 0  10.80000000006265 -4.9 0  10.6000000000637 -4.9 0  10.40000000006475 -4.9 0  10.2000000000658 -4.9 0  10.00000000006684 -4.9 0  9.800000000067891 -4.9 0  9.60000000006894 -4.9 0  9.400000000069989 -4.9 0  9.200000000070727 -4.9 0  9.00000000007142 -4.9 0  8.800000000071787 -4.9 0  8.600000000072125 -4.9 0  8.400000000072467 -4.9 0  8.200000000072805 -4.9 0  8.000000000073143 -4.9 
[...]
<PointData  Vectors="f_7"> 
<DataArray  type="Float64"  Name="f_7"  NumberOfComponents="3" format="ascii">2.7434315728340415e-04 7.0000000000000010e-04 0.0000000000000000e+00  -2.7426580570919748e-04 7.0000000000000010e-04 0.0000000000000000e+00  0.0000000000000000e+00 0.0000000000000000e+00 0.0000000000000000e+00  0.0000000000000000e+00 0.0000000000000000e+00 0.0000000000000000e+00  3.8434316172460078e-05 3.5231590418472640e-04 0.0000000000000000e+00  -3.8958470838622928e-05 3.4425694132293641e-04 0.0000000000000000e+00  2.7012673338950069e-04 7.0000000000000010e-04 0.0000000000000000e+00  2.6588386920114077e-04 7.0000000000000010e-04 0.0000000000000000e+00  2.6161836500651679e-04 7.0000000000000010e-04 0.0000000000000000e+00  2.5727659434983087e-04 7.0000000000000010e-04 0.0000000000000000e+00  2.5291562205551955e-04 7.0000000000000010e-04 0.0000000000000000e+00  2.4849786363189926e-04 7.0000000000000010e-04 0.0000000000000000e+00  2.4405433578716926e-04 7.0000000000000010e-04 0.0000000000000000e+00  2.3956261900102586e-04 7.0000000000000010e-04 0.0000000000000000e+00  2.3505830022644598e-04 7.0000000000000010e-04 0.0000000000000000e+00  2.3051216529356165e-04 7.0000000000000010e-04 0.0000000000000000e+00  2.2594123338179629e-04 7.0000000000000010e-04 0.0000000000000000e+00  2.2136520559263681e-04 7.0000000000000010e-04 0.0000000000000000e+00  2.1674032627004512e-04 7.0000000000000010e-04 0.0000000000000000e+00  2.1211456819865765e-04 7.0000000000000010e-04 0.0000000000000000e+00  2.0748034909347940e-04 7.0000000000000010e-04 0.0000000000000000e+00  2.0284007728077353e-04 7.0000000000000010e-04 0.0000000000000000e+00  1.9816585862943761e-04 7.0000000000000010e-04 0.0000000000000000e+00  1.9349933957539121e-04 7.0000000000000010e-04 0.0000000000000000e+00  1.8883943380386972e-04 7.0000000000000010e-04 0.0000000000000000e+00  1.8415804816244324e-04 7.0000000000000010e-04 0.0000000000000000e+00  1.7948434933190446e-04 7.0000000000000010e-04 0.0000000000000000e+00  1.7481509208171873e-04 7.0000000000000010e-04 0.0000000000000000e+00  1.7015602321873258e-04 7.0000000000000010e-04 0.0000000000000000e+00  1.6550969504147139e-04 7.0000000000000010e-04 0.0000000000000000e+00  1.6084647665886337e-04 7.0000000000000010e-04 0.0000000000000000e+00  1.5619968077410534e-04 7.0000000000000010e-04 0.0000000000000000e+00  1.5156795054797049e-04 7.0000000000000010e-04 0.0000000000000000e+00  1.4694195094556937e-04 7.0000000000000010e-04 0.0000000000000000e+00  1.4232692471826314e-04 7.0000000000000010e-04 0.0000000000000000e+00  1.3772409533707459e-04 7.0000000000000010e-04 0.0000000000000000e+00  1.3312693007104667e-04 7.0000000000000010e-04 0.0000000000000000e+00  1.2854063645891184e-04 7.0000000000000010e-04 0.0000000000000000e+00  1.2396594761912612e-04 7.0000000000000010e-04 0.0000000000000000e+00  1.1940374471615198e-04 7.0000000000000010e-04 0.0000000000000000e+00  1.1483669894361903e-04 7.0000000000000010e-04 0.0000000000000000e+00  1.1028215917218864e-04 7.0000000000000010e-04 0.0000000000000000e+00  1.0572995568884688e-04 7.0000000000000010e-04 0.0000000000000000e+00  1.0118337120105204e-04 7.0000000000000010e-04 0.0000000000000000e+00  9.6632949617401958e-05 7.0000000000000010e-04 0.0000000000000000e+00  9.2083608726108236e-05 7.0000000000000010e-04 0.0000000000000000e+00  8.7532382783353871e-05 7.0000000000000010e-04 0.0000000000000000e+00  8.2974307004437384e-05 7.0000000000000010e-04 0.0000000000000000e+00  7.8406634303373749e-05 7.0000000000000010e-04 0.0000000000000000e+00  7.3827616427446301e-05 7.0000000000000010e-04 0.0000000000000000e+00  6.9233369156384666e-05 7.0000000000000010e-04 0.0000000000000000e+00  6.4621935853912408e-05 7.0000000000000010e-04 0.0000000000000000e+00  5.9992250956700439e-05 7.0000000000000010e-04 0.0000000000000000e+00  5.5336865271148162e-05 7.0000000000000010e-04 0.0000000000000000e+00  5.0653820703904384e-05 7.0000000000000010e-04 0.0000000000000000e+00  4.5946240285128563e-05 7.0000000000000010e-04 0.0000000000000000e+00  4.1205285655285575e-05 7.0000000000000010e-04 0.0000000000000000e+00  3.6432131745463232e-05 7.0000000000000010e-04 0.0000000000000000e+00  3.1625116972207144e-05 7.0000000000000010e-04 0.0000000000000000e+00  2.6770860388144282e-05 7.0000000000000010e-04 0.0000000000000000e+00  2.1898686961739253e-05 7.0000000000000010e-04 0.0000000000000000e+00  1.6987201237423709e-05 7.0000000000000010e-04 0.0000000000000000e+00  1.2043148651858897e-05 7.0000000000000010e-04 0.0000000000000000e+00  7.0652583144228983e-06 7.0000000000000010e-04 0.0000000000000000e+00  2.0684909289266340e-06 7.0000000000000010e-04 0.0000000000000000e+00  -2.9544233191969725e-06 7.0000000000000010e-04 0.0000000000000000e+00  -7.9579828152062160e-06 7.0000000000000010e-04 0.0000000000000000e+00  -1.2963183804638423e-05 7.0000000000000010e-04 0.0000000000000000e+00  -1.7948711159839281e-05 7.0000000000000010e-04 0.0000000000000000e+00  -2.2906627008371209e-05 7.0000000000000010e-04 0.0000000000000000e+00  -2.7817317550349529e-05 7.0000000000000010e-04 0.0000000000000000e+00  -3.2621503537480089e-05 7.0000000000000010e-04 0.0000000000000000e+00  -3.7319719170018777e-05 7.0000000000000010e-04 0.0000000000000000e+00  -4.1849023223504925e-05 7.0000000000000010e-04 0.0000000000000000e+00  -4.6250406135597029e-05 7.0000000000000010e-04 0.0000000000000000e+00  -5.0508503763929468e-05 7.0000000000000010e-04 0.0000000000000000e+00  -5.4518934444915057e-05 7.0000000000000010e-04 0.0000000000000000e+00  -5.8231619004477482e-05 7.0000000000000010e-04 0.0000000000000000e+00  -6.1676159916898039e-05 7.0000000000000010e-04 0.0000000000000000e+00  -6.4883343454840491e-05 7.0000000000000010e-04 0.0000000000000000e+00  -6.7689487533205086e-05 7.0000000000000010e-04 0.0000000000000000e+00  -7.0213607791263756e-05 7.0000000000000010e-04 0.0000000000000000e+00  -7.2377185530188762e-05 7.0000000000000010e-04 0.0000000000000000e+00  -7.4145349216228975e-05 7.0000000000000010e-04 0.0000000000000000e+00  -7.5570360744177826e-05 7.0000000000000010e-04 0.0000000000000000e+00  -7.6663717886886826e-05 7.0000000000000010e-04 0.0000000000000000e+00  -7.7398800050915010e-05 7.0000000000000010e-04 0.0000000000000000e+00  -7.7783747096111088e-05 7.0000000000000010e-04 0.0000000000000000e+00  -7.7830542397437706e-05 7.0000000000000010e-04 0.0000000000000000e+00  -7.7564023862432299e-05 7.0000000000000010e-04 0.0000000000000000e+00  -7.7047789653284150e-05 7.0000000000000010e-04 0.0000000000000000e+00  -7.6288046456345822e-05 7.0000000000000010e-04 0.0000000000000000e+00  -7.5258421465659726e-05 7.0000000000000010e-04 0.0000000000000000e+00  -7.3993899609498922e-05 7.0000000000000010e-04 0.0000000000000000e+00  -7.2578340068641550e-05 7.0000000000000010e-04 0.0000000000000000e+00  -7.1002601429200627e-05 7.0000000000000010e-04 0.0000000000000000e+00  -6.9286154124455522e-05 7.0000000000000010e-04 0.0000000000000000e+00  -6.7411288238920263e-05 7.0000000000000010e-04 0.0000000000000000e+00  -6.5451016371757310e-05 7.0000000000000010e-04 0.0000000000000000e+00  -6.3406354329566971e-05 7.0000000000000010e-04 0.0000000000000000e+00  -6.1303797445281486e-05 7.0000000000000010e-04 0.0000000000000000e+00  -5.9117198351803173e-05 7.0000000000000010e-04 0.0000000000000000e+00  -5.6909855151004987e-05 7.0000000000000010e-04 0.0000000000000000e+00  -5.4678784379645661e-05 7.0000000000000010e-04 0.0000000000000000e+00  -5.2423372752797063e-05 7.0000000000000010e-04 0.0000000000000000e+00  -5.0158554063233746e-05 7.0000000000000010e-04 0.0000000000000000e+00  -4.7900113587399068e-05 7.0000000000000010e-04 0.0000000000000000e+00  -4.5654548498857865e-05 7.0000000000000010e-04 0.0000000000000000e+00  -4.3399536048547980e-05 7.0000000000000010e-04 0.0000000000000000e+00  -4.1175682753766153e-05 7.0000000000000010e-04 0.0000000000000000e+00  -3.8975908193008196e-05 7.0000000000000010e-04 0.0000000000000000e+00  -3.6803924145843665e-05 7.0000000000000010e-04 0.0000000000000000e+00  -3.4664512749716898e-05 7.0000000000000010e-04 0.0000000000000000e+00  -3.2546997732229134e-05 7.0000000000000010e-04 0.0000000000000000e+00  -3.0463914988411477e-05 7.0000000000000010e-04 0.0000000000000000e+00  -2.8414660818383188e-05 7.0000000000000010e-04 0.0000000000000000e+00  -2.6396802748226218e-05 7.0000000000000010e-04 0.0000000000000000e+00  -2.4412618333971264e-05 7.0000000000000010e-04 0.0000000000000000e+00  -2.2449384989530040e-05 7.0000000000000010e-04 0.0000000000000000e+00  -2.0519128606366209e-05 7.0000000000000010e-04 0.0000000000000000e+00  -1.8614735532682601e-05 7.0000000000000010e-04 0.0000000000000000e+00  -1.6737459064233867e-05 7.0000000000000010e-04 0.0000000000000000e+00  -1.4882274458846621e-05 7.0000000000000010e-04 0.0000000000000000e+00  -1.3050370921459097e-05 7.0000000000000010e-04 0.0000000000000000e+00  -1.1238430579271944e-05 7.0000000000000010e-04 0.0000000000000000e+00  -9.4443744182885044e-06 7.0000000000000010e-04 0.0000000000000000e+00  -7.6669444641528706e-06 7.0000000000000010e-04 0.0000000000000000e+00  -5.9036995728398116e-06 7.0000000000000010e-04 0.0000000000000000e+00  -4.1524383078903794e-06 7.0000000000000010e-04 0.0000000000000000e+00  -2.4097948234366198e-06 7.0000000000000010e-04 0.0000000000000000e+00  -6.7549695897172722e-07 7.0000000000000010e-04 0.0000000000000000e+00  1.0526737634485144e-06 7.0000000000000010e-04 0.0000000000000000e+00  2.7777445614051505e-06 7.0000000000000010e-04 0.0000000000000000e+00  4.5019521093362137e-06 7.0000000000000010e-04 0.0000000000000000e+00  6.2282259571385466e-06 7.0000000000000010e-04 0.0000000000000000e+00  7.9565192713981733e-06 7.0000000000000010e-04 0.0000000000000000e+00  9.6921337316871144e-06 7.0000000000000010e-04 0.0000000000000000e+00  1.1437306446931791e-05 7.0000000000000010e-04 0.0000000000000000e+00  1.3195823571818327e-05 7.0000000000000010e-04 0.0000000000000000e+00  1.4970618246448193e-05 7.0000000000000010e-04 0.0000000000000000e+00  1.6759511110510516e-05 7.0000000000000010e-04 0.0000000000000000e+00  1.8570231566018100e-05 7.0000000000000010e-04 0.0000000000000000e+00  2.0404878646920023e-05 7.0000000000000010e-04 0.0000000000000000e+00  2.2266349179893181e-05 7.0000000000000010e-04 0.0000000000000000e+00  2.4156033888636208e-05 7.0000000000000010e-04 0.0000000000000000e+00  2.6078384708337896e-05 7.0000000000000010e-04 0.0000000000000000e+00  2.8030387388488147e-05 7.0000000000000010e-04 0.0000000000000000e+00  3.0020941746537551e-05 7.0000000000000010e-04 0.0000000000000000e+00  3.2049575719570003e-05 7.0000000000000010e-04 0.0000000000000000e+00  3.4104561089049216e-05 7.0000000000000010e-04 0.0000000000000000e+00  3.6202462429128637e-05 7.0000000000000010e-04 0.0000000000000000e+00  3.8337659437379244e-05 7.0000000000000010e-04 0.0000000000000000e+00  4.0504392120154283e-05 7.0000000000000010e-04 0.0000000000000000e+00  4.2704090002382842e-05 7.0000000000000010e-04 0.0000000000000000e+00  4.4930093198229352e-05 7.0000000000000010e-04 0.0000000000000000e+00  4.7199526690527183e-05 7.0000000000000010e-04 0.0000000000000000e+00  4.9462965671154411e-05 7.0000000000000010e-04 0.0000000000000000e+00  5.1743968793820457e-05 7.0000000000000010e-04 0.0000000000000000e+00  5.4033104907104219e-05 7.0000000000000010e-04 0.0000000000000000e+00  5.6324850185346262e-05 7.0000000000000010e-04 0.0000000000000000e+00  5.8578950431465430e-05 7.0000000000000010e-04 0.0000000000000000e+00  6.0809938540105279e-05 7.0000000000000010e-04 0.0000000000000000e+00  6.2990548358174317e-05 7.0000000000000010e-04 0.0000000000000000e+00  6.5108400346745366e-05 7.0000000000000010e-04 0.0000000000000000e+00  6.7151377782067735e-05 7.0000000000000010e-04 0.0000000000000000e+00  6.9055343350966388e-05 7.0000000000000010e-04 0.0000000000000000e+00  7.0827331542371307e-05 7.0000000000000010e-04 0.0000000000000000e+00  7.2416125070924557e-05 7.0000000000000010e-04 0.0000000000000000e+00  7.3879914899759131e-05 7.0000000000000010e-04 0.0000000000000000e+00  7.5103235251241368e-05 7.0000000000000010e-04 0.0000000000000000e+00  7.6071497548126110e-05 7.0000000000000010e-04 0.0000000000000000e+00  7.6808886218373385e-05 7.0000000000000010e-04 0.0000000000000000e+00  7.7211222577435435e-05 7.0000000000000010e-04 0.0000000000000000e+00  7.7391726582651905e-05 7.0000000000000010e-04 0.0000000000000000e+00  7.7222688983978485e-05 7.0000000000000010e-04 0.0000000000000000e+00  7.6645576376389185e-05 7.0000000000000010e-04 0.0000000000000000e+00  7.5677159248530772e-05 7.0000000000000010e-04 0.0000000000000000e+00  7.4374970155337579e-05 7.0000000000000010e-04 0.0000000000000000e+00  7.2674009922310860e-05 7.0000000000000010e-04 0.0000000000000000e+00  7.0582787803691622e-05 7.0000000000000010e-04 0.0000000000000000e+00  6.8146450900937825e-05 7.0000000000000010e-04 0.0000000000000000e+00  6.5327917239660588e-05 7.0000000000000010e-04 0.0000000000000000e+00  6.2302693736993592e-05 7.0000000000000010e-04 0.0000000000000000e+00  5.8844291040880172e-05 7.0000000000000010e-04 0.0000000000000000e+00  5.5115789059614567e-05 7.0000000000000010e-04 0.0000000000000000e+00  5.1134673005537681e-05 7.0000000000000010e-04 0.0000000000000000e+00  4.6915409763941915e-05 7.0000000000000010e-04 0.0000000000000000e+00  4.2526368228919537e-05 7.0000000000000010e-04 0.0000000000000000e+00  3.7928266205129900e-05 7.0000000000000010e-04 0.0000000000000000e+00  3.3225544235351732e-05 7.0000000000000010e-04 0.0000000000000000e+00  2.8382679027455459e-05 7.0000000000000010e-04 0.0000000000000000e+00  2.3469078699934236e-05 7.0000000000000010e-04 0.0000000000000000e+00  1.8498806387560257e-05 7.0000000000000010e-04 0.0000000000000000e+00  1.3493817292815911e-05 7.0000000000000010e-04 0.0000000000000000e+00  8.4471095049235841e-06 7.0000000000000010e-04 0.0000000000000000e+00  3.4078941936803182e-06 7.0000000000000010e-04 0.0000000000000000e+00  -1.6319706430887891e-06 7.0000000000000010e-04 0.0000000000000000e+00  -6.6537041047593998e-06 7.0000000000000010e-04 0.0000000000000000e+00  -1.1651908142116282e-05 7.0000000000000010e-04 0.0000000000000000e+00  -1.6620487814328814e-05 7.0000000000000010e-04 0.0000000000000000e+00  -2.1556678197276656e-05 7.0000000000000010e-04 0.0000000000000000e+00  -2.6456827659279642e-05 7.0000000000000010e-04 0.0000000000000000e+00  -3.1317834553847597e-05 7.0000000000000010e-04 0.0000000000000000e+00  -3.6149075672305508e-05 7.0000000000000010e-04 0.0000000000000000e+00  -4.0940700736444487e-05 7.0000000000000010e-04 0.0000000000000000e+00  -4.5694613056745824e-05 7.0000000000000010e-04 0.0000000000000000e+00  -5.0422008289659594e-05 7.0000000000000010e-04 0.0000000000000000e+00  -5.5114437123486402e-05 7.0000000000000010e-04 0.0000000000000000e+00  -5.9782489373317861e-05 7.0000000000000010e-04 0.0000000000000000e+00  -6.4425593777285960e-05 7.0000000000000010e-04 0.0000000000000000e+00  -6.9048012197562723e-05 7.0000000000000010e-04 0.0000000000000000e+00  -7.3651967493322074e-05 7.0000000000000010e-04 0.0000000000000000e+00  -7.8237918649068508e-05 7.0000000000000010e-04 0.0000000000000000e+00  -8.2813412073827637e-05 7.0000000000000010e-04 0.0000000000000000e+00  -8.7380148440371764e-05 7.0000000000000010e-04 0.0000000000000000e+00  -9.1941280345091969e-05 7.0000000000000010e-04 0.0000000000000000e+00  -9.6497930244015805e-05 7.0000000000000010e-04 0.0000000000000000e+00  -1.0104779083338098e-04 7.0000000000000010e-04 0.0000000000000000e+00  -1.0560029281974472e-04 7.0000000000000010e-04 0.0000000000000000e+00  -1.1015686048121903e-04 7.0000000000000010e-04 0.0000000000000000e+00  -1.1472080629161157e-04 7.0000000000000010e-04 0.0000000000000000e+00  -1.1928030576453250e-04 7.0000000000000010e-04 0.0000000000000000e+00  -1.2385222916052891e-04 7.0000000000000010e-04 0.0000000000000000e+00  -1.2843565667170869e-04 7.0000000000000010e-04 0.0000000000000000e+00  -1.3301900467353400e-04 7.0000000000000010e-04 0.0000000000000000e+00  -1.3761604489156555e-04 7.0000000000000010e-04 0.0000000000000000e+00  -1.4222435805094657e-04 7.0000000000000010e-04 0.0000000000000000e+00  -1.4684526126561648e-04 7.0000000000000010e-04 0.0000000000000000e+00  -1.5147331881903479e-04 7.0000000000000010e-04 0.0000000000000000e+00  -1.5610578399411564e-04 7.0000000000000010e-04 0.0000000000000000e+00  -1.6074916690272243e-04 7.0000000000000010e-04 0.0000000000000000e+00  -1.6540495115901737e-04 7.0000000000000010e-04 0.0000000000000000e+00  -1.7006441615711085e-04 7.0000000000000010e-04 0.0000000000000000e+00  -1.7472853181812177e-04 7.0000000000000010e-04 0.0000000000000000e+00  -1.7939703902319868e-04 7.0000000000000010e-04 0.0000000000000000e+00  -1.8407166033318305e-04 7.0000000000000010e-04 0.0000000000000000e+00  -1.8874131406444413e-04 7.0000000000000010e-04 0.0000000000000000e+00  -1.9341517648786290e-04 7.0000000000000010e-04 0.0000000000000000e+00  -1.9807744078722341e-04 7.0000000000000010e-04 0.0000000000000000e+00  -2.0274045337404789e-04 7.0000000000000010e-04 0.0000000000000000e+00  -2.0739620877634798e-04 7.0000000000000010e-04 0.0000000000000000e+00  -2.1203394411382380e-04 7.0000000000000010e-04 0.0000000000000000e+00  -2.1665992948219468e-04 7.0000000000000010e-04 0.0000000000000000e+00  -2.2127112708167593e-04 7.0000000000000010e-04 0.0000000000000000e+00  -2.2586126479099726e-04 7.0000000000000010e-04 0.0000000000000000e+00  -2.3042467317539985e-04 7.0000000000000010e-04 0.0000000000000000e+00  -2.3497511321739019e-04 7.0000000000000010e-04 0.0000000000000000e+00  -2.3949022161859476e-04 7.0000000000000010e-04 0.0000000000000000e+00  -2.4397280584805705e-04 7.0000000000000010e-04 0.0000000000000000e+00  -2.4842081980736615e-04 7.0000000000000010e-04 0.0000000000000000e+00  -2.5282693545747775e-04 7.0000000000000010e-04 0.0000000000000000e+00  -2.5719743665776807e-04 7.0000000000000010e-04 0.0000000000000000e+00  -2.6153231271832202e-04 7.0000000000000010e-04 0.0000000000000000e+00  -2.6580433130766036e-04 7.0000000000000010e-04 0.0000000000000000e+00  -2.7004726178578807e-04 7.0000000000000010e-04 0.0000000000000000e+00  -2.7418340020085173e-04 6.8748027263009165e-04 0.0000000000000000e+00  -2.7395450379956795e-04 6.7495838470690481e-04 0.0000000000000000e+00  -2.7363186239909017e-04 6.6243443123220093e-04 0.0000000000000000e+00  -2.7313216223592320e-04 6.4990828378599507e-04 0.0000000000000000e+00  -2.7250675422587527e-04 6.3739782551050408e-04 0.0000000000000000e+00  -2.7171076758739896e-04 6.2485743529372829e-04 0.0000000000000000e+00  -2.7079006689259539e-04 6.1234034786537188e-04 0.0000000000000000e+00  -2.6972885601720607e-04 5.9980072283620067e-04 0.0000000000000000e+00  -2.6850607952526008e-04 5.8726161060224699e-04 0.0000000000000000e+00  -2.6713205107327934e-04 5.7473816659097093e-04 0.0000000000000000e+00  -2.6560792473158580e-04 5.6218411954431127e-04 0.0000000000000000e+00  -2.6392652973902293e-04 5.4963440228509273e-04 0.0000000000000000e+00  -2.6209174816827039e-04 5.3706431902566783e-04 0.0000000000000000e+00  -2.6008535993807361e-04 5.2451667986256581e-04 0.0000000000000000e+00  -2.5792404882599677e-04 5.1192252165618737e-04 0.0000000000000000e+00  -2.5558551136758902e-04 4.9930888687514782e-04 0.0000000000000000e+00  -2.5307141748105033e-04 4.8670986019039091e-04 0.0000000000000000e+00  -2.5038088855438472e-04 4.7406536721703268e-04 0.0000000000000000e+00  -2.4750083222329375e-04 4.6143084791338255e-04 0.0000000000000000e+00  -2.4443320973758771e-04 4.4876138336365966e-04 0.0000000000000000e+00  -2.4117846902940639e-04 4.3603210369676037e-04 0.0000000000000000e+00  -2.3771137646599048e-04 4.2332506562381812e-04 0.0000000000000000e+00  -2.3404347829561527e-04 4.1054153943574325e-04 0.0000000000000000e+00  -2.3014675669438131e-04 3.9774716358534438e-04 0.0000000000000000e+00  -2.2604800555392070e-04 3.8488116715671398e-04 0.0000000000000000e+00  -2.2169660955761243e-04 3.7200932717722191e-04 0.0000000000000000e+00  -2.1713116865718985e-04 3.5902120583952788e-04 0.0000000000000000e+00  