<?xml version="1.0"?>
<VTKFile type="UnstructuredGrid"  version="0.1"  >
<UnstructuredGrid>
<Piece  NumberOfPoints="16512" NumberOfCells="32424">
<Points>
<DataArray  type="Float64"  NumberOfComponents="3"  format="ascii">-25 4.9 0  25 4.9 0  25 -4.9 0  -25 -4.9 0  -10 0 0  10 0 0  -24.80000000000034 4.9 0  -24.60000000000068 4.9 0  -24.40000000000101 4.9 0  -24.20000000000135 4.9 0  -24.00000000000169 4.9 0  -23.80000000000203 4.9 0  -23.60000000000237 4.9 0  -23.40000000000271 4.9 0  -23.20000000000304 4.9 0  -23.00000000000338 4.9 0  -22.80000000000372 4.9 0  -22.60000000000406 4.9 0  -22.40000000000439 4.9 0  -22.20000000000473 4.9 0  -22.00000000000507 4.9 0  -21.80000000000541 4.9 0  -21.60000000000575 4.9 0  -21.40000000000608 4.9 0  -21.20000000000642 4.9 0  -21.00000000000676 4.9 0  -20.8000000000071 4.9 0  -20.60000000000744 4.9 0  -20.40000000000777 4.9 0  -20.20000000000811 4.9 0  -20.00000000000845 4.9 0  -19.80000000000879 4.9 0  -19.60000000000912 4.9 0  -19.40000000000946 4.9 0  -19.2000000000098 4.9 0  -19.00000000001039 4.9 0  -18.80000000001108 4.9 0  -18.60000000001231 4.9 0  -18.40000000001371 4.9 0  -18.2000000000154 4.9 0  -18.00000000001716 4.9 0  -17.80000000001892 4.9 0  -17.60000000002067 4.9 0  -17.40000000002243 4.9 0  -17.20000000002419 4.9 0  -17.00000000002595 4.9 0  -16.80000000002771 4.9 0  -16.60000000002947 4.9 0  -16.40000000003123 4.9 0  -16.20000000003299 4.9 0  -16.00000000003472 4.9 0  -15.80000000003612 4.9 0  -15.60000000003748 4.9 0  -15.40000000003853 4.9 0  -15.20000000003958 4.9 0  -15.00000000004063 4.9 0  -14.80000000004168 4.9 0  -14.60000000004273 4.9 0  -14.40000000004377 4.9 0  -14.20000000004482 4.9 0  -14.00000000004587 4.9 0  -13.80000000004692 4.9 0  -13.60000000004797 4.9 0  -13.40000000004902 4.9 0  -13.20000000005007 4.9 0  -13.00000000005111 4.9 0  -12.80000000005216 4.9 0  -12.60000000005321 4.9 0  -12.40000000005426 4.9 0  -12.20000000005531 4.9 0  -12.00000000005636 4.9 0  -11.80000000005741 4.9 0  -11.60000000005846 4.9 0  -11.4000000000595 4.9 0  -11.20000000006055 4.9 0  -11.0000000000616 4.9 0  -10.80000000006265 4.9 0  -10.6000000000637 4.9 0  -10.40000000006475 4.9 0  -10.2000000000658 4.9 0  -10.00000000006684 4.9 0  -9.800000000067891 4.9 0  -9.60000000006894 4.9 0  -9.400000000069989 4.9 0  -9.200000000070727 4.9 0  -9.00000000007142 4.9 0  -8.800000000071787 4.9 0  -8.600000000072125 4.9 0  -8.400000000072467 4.9 0  -8.200000000072805 4.9 0  -8.000000000073143 4.9 0  -7.800000000073481 4.9 0  -7.60000000007382 4.9 0  -7.400000000074154 4.9 0  -7.200000000074493 4.9 0  -7.000000000074831 4.9 0  -6.800000000075173 4.9 0  -6.600000000075511 4.9 0  -6.400000000075849 4.9 0  -6.200000000076187 4.9 0  -6.000000000076525 4.9 0  -5.800000000076867 4.9 0  -5.600000000077205 4.9 0  -5.400000000077544 4.9 0  -5.200000000077882 4.9 0  -5.00000000007822 4.9 0  -4.800000000078558 4.9 0  -4.600000000078897 4.9 0  -4.400000000079235 4.9 0  -4.200000000079573 4.9 0  -4.000000000079908 4.9 0  -3.800000000080246 4.9 0  -3.600000000080588 4.9 0  -3.400000000080926 4.9 0  -3.200000000081264 4.9 0  -3.000000000081606 4.9 0  -2.800000000081944 4.9 0  -2.600000000082282 4.9 0  -2.40000000008262 4.9 0  -2.200000000082959 4.9 0  -2.000000000083297 4.9 0  -1.800000000083635 4.9 0  -1.600000000083973 4.9 0  -1.400000000084312 4.9 0  -1.20000000008465 4.9 0  -1.000000000084988 4.9 0  -0.8000000000853262 4.9 0  -0.6000000000856645 4.9 0  -0.4000000000860027 4.9 0  -0.2000000000863409 4.9 0  -8.667910833537462e-11 4.9 0  0.1999999999129827 4.9 0  0.3999999999126409 4.9 0  0.5999999999123027 4.9 0  0.7999999999119716 4.9 0  0.9999999999116262 4.9 0  1.199999999911295 4.9 0  1.39999999991095 4.9 0  1.599999999910619 4.9 0  1.799999999910273 4.9 0  1.999999999909939 4.9 0  2.199999999909597 4.9 0  2.399999999909262 4.9 0  2.599999999908921 4.9 0  2.799999999908582 4.9 0  2.999999999908244 4.9 0  3.199999999907906 4.9 0  3.399999999907564 4.9 0  3.599999999907226 4.9 0  3.799999999906888 4.9 0  3.999999999906549 4.9 0  4.199999999906218 4.9 0  4.399999999905873 4.9 0  4.599999999905542 4.9 0  4.799999999905197 4.9 0  4.999999999904865 4.9 0  5.19999999990452 4.9 0  5.399999999904182 4.9 0  5.599999999903844 4.9 0  5.799999999903505 4.9 0  5.999999999903167 4.9 0  6.199999999902829 4.9 0  6.399999999902491 4.9 0  6.599999999902153 4.9 0  6.799999999902379 4.9 0  6.999999999902752 4.9 0  7.199999999903724 4.9 0  7.399999999904807 4.9 0  7.59999999990589 4.9 0  7.799999999906966 4.9 0  7.999999999908056 4.9 0  8.199999999909132 4.9 0  8.399999999910214 4.9 0  8.59999999991129 4.9 0  8.79999999991238 4.9 0  8.999999999913456 4.9 0  9.199999999914539 4.9 0  9.399999999915622 4.9 0  9.599999999916704 4.9 0  9.79999999991778 4.9 0  9.99999999991887 4.9 0  10.19999999991995 4.9 0  10.39999999992103 4.9 0  10.59999999992212 4.9 0  10.79999999992319 4.9 0  10.99999999992428 4.9 0  11.19999999992536 4.9 0  11.39999999992644 4.9 0  11.59999999992752 4.9 0  11.7999999999286 4.9 0  11.99999999992968 4.9 0  12.19999999993077 4.9 0  12.39999999993184 4.9 0  12.59999999993293 4.9 0  12.79999999993401 4.9 0  12.99999999993509 4.9 0  13.19999999993617 4.9 0  13.39999999993726 4.9 0  13.59999999993834 4.9 0  13.79999999993942 4.9 0  13.99999999994051 4.9 0  14.19999999994158 4.9 0  14.39999999994266 4.9 0  14.59999999994375 4.9 0  14.79999999994483 4.9 0  14.99999999994591 4.9 0  15.199999999947 4.9 0  15.39999999994807 4.9 0  15.59999999994915 4.9 0  15.79999999995024 4.9 0  15.99999999995132 4.9 0  16.1999999999524 4.9 0  16.39999999995349 4.9 0  16.59999999995456 4.9 0  16.79999999995565 4.9 0  16.99999999995674 4.9 0  17.19999999995781 4.9 0  17.39999999995889 4.9 0  17.59999999995997 4.9 0  17.79999999996106 4.9 0  17.99999999996214 4.9 0  18.19999999996322 4.9 0  18.3999999999643 4.9 0  18.59999999996538 4.9 0  18.79999999996646 4.9 0  18.99999999996755 4.9 0  19.19999999996863 4.9 0  19.39999999996971 4.9 0  19.59999999997079 4.9 0  19.79999999997187 4.9 0  19.99999999997296 4.9 0  20.19999999997404 4.9 0  20.39999999997512 4.9 0  20.5999999999762 4.9 0  20.79999999997728 4.9 0  20.99999999997836 4.9 0  21.19999999997945 4.9 0  21.39999999998052 4.9 0  21.59999999998161 4.9 0  21.79999999998269 4.9 0  21.99999999998377 4.9 0  22.19999999998485 4.9 0  22.39999999998594 4.9 0  22.59999999998701 4.9 0  22.7999999999881 4.9 0  22.99999999998919 4.9 0  23.19999999999026 4.9 0  23.39999999999135 4.9 0  23.59999999999243 4.9 0  23.79999999999351 4.9 0  23.99999999999459 4.9 0  24.19999999999568 4.9 0  24.39999999999675 4.9 0  24.59999999999783 4.9 0  24.79999999999892 4.9 0  25 4.700000000000415 0  25 4.500000000000868 0  25 4.300000000001562 0  25 4.100000000001831 0  25 3.900000000002072 0  25 3.700000000002459 0  25 3.500000000003038 0  25 3.300000000003653 0  25 3.100000000004294 0  25 2.900000000004838 0  25 2.700000000005293 0  25 2.500000000005957 0  25 2.300000000006508 0  25 2.100000000007153 0  25 1.900000000007722 0  25 1.700000000008417 0  25 1.500000000008938 0  25 1.30000000000963 0  25 1.100000000010154 0  25 0.9000000000108268 0  25 0.7000000000114559 0  25 0.5000000000119762 0  25 0.3000000000126564 0  25 0.1000000000131926 0  25 -0.09999999998679243 0  25 -0.2999999999874587 0  25 -0.4999999999878586 0  25 -0.6999999999884441 0  25 -0.899999999988804 0  25 -1.099999999989427 0  25 -1.299999999989749 0  25 -1.499999999990411 0  25 -1.69999999999073 0  25 -1.899999999991396 0  25 -2.099999999991715 0  25 -2.299999999992381 0  25 -2.499999999993047 0  25 -2.699999999993714 0  25 -2.899999999994227 0  25 -3.099999999994698 0  25 -3.299999999994673 0  25 -3.499999999995339 0  25 -3.699999999996004 0  25 -3.89999999999667 0  25 -4.099999999997335 0  25 -4.299999999998002 0  25 -4.499999999998668 0  25 -4.699999999999335 0  24.80000000000034 -4.9 0  24.60000000000068 -4.9 0  24.40000000000101 -4.9 0  24.20000000000135 -4.9 0  24.00000000000169 -4.9 0  23.80000000000203 -4.9 0  23.60000000000237 -4.9 0  23.40000000000271 -4.9 0  23.20000000000304 -4.9 0  23.00000000000338 -4.9 0  22.80000000000372 -4.9 0  22.60000000000406 -4.9 0  22.40000000000439 -4.9 0  22.20000000000473 -4.9 0  22.00000000000507 -4.9 0  21.80000000000541 -4.9 0  21.60000000000575 -4.9 0  21.40000000000608 -4.9 0  21.20000000000642 -4.9 0  21.00000000000676 -4.9 0  20.8000000000071 -4.9 0  20.60000000000744 -4.9 0  20.40000000000777 -4.9 0  20.20000000000811 -4.9 0  20.00000000000845 -4.9 0  19.80000000000879 -4.9 0  19.60000000000912 -4.9 0  19.40000000000946 -4.9 0  19.2000000000098 -4.9 0  19.00000000001039 -4.9 0  18.80000000001108 -4.9 0  18.60000000001231 -4.9 0  18.40000000001371 -4.9 0  18.2000000000154 -4.9 0  18.00000000001716 -4.9 0  17.80000000001892 -4.9 0  17.60000000002067 -4.9 0  17.40000000002243 -4.9 0  17.20000000002419 -4.9 0  17.00000000002595 -4.9 0  16.80000000002771 -4.9 0  16.60000000002947 -4.9 0  16.40000000003123 -4.9 0  16.20000000003299 -4.9 0  16.00000000003472 -4.9 0  15.80000000003612 -4.9 0  15.60000000003748 -4.9 0  15.40000000003853 -4.9 0  15.20000000003958 -4.9 0  15.00000000004063 -4.9 0  14.80000000004168 -4.9 0  14.60000000004273 -4.9 0  14.40000000004377 -4.9 0  14.20000000004482 -4.9 0  14.00000000004587 -4.9 0  13.80000000004692 -4.9 0  13.60000000004797 -4.9 0  13.40000000004902 -4.9 0  13.20000000005007 -4.9 0  13.00000000005111 -4.9 0  12.80000000005216 -4.9 0  12.60000000005321 -4.9 0  12.40000000005426 -4.9 0  12.20000000005531 -4.9 0  12.00000000005636 -4.9 0  11.80000000005741 -4.9 0  11.60000000005846 -4.9 0  11.4000000000595 -4.9 0  11.20000000006055 -4.9 0  11.0000000000616 -4.9 0  10.80000000006265 -4.9 0  10.6000000000637 -4.9 0  10.40000000006475 -4.9 0  10.2000000000658 -4.9 0  10.00000000006684 -4.9 0  9.800000000067891 -4.9 0  9.60000000006894 -4.9 0  9.400000000069989 -4.9 0  9.200000000070727 -4.9 0  9.00000000007142 -4.9 0  8.800000000071787 -4.9 0  8.600000000072125 -4.9 0  8.400000000072467 -4.9 0  8.200000000072805 -4.9 0  8.000000000073143 -4.9 
[...]
<PointData  Vectors="f_7"> 
<DataArray  type="Float64"  Name="f_7"  NumberOfComponents="3" format="ascii">3.7659276936991134e-04 9.7999999999999997e-04 0.0000000000000000e+00  -3.7650371444120702e-04 9.7999999999999997e-04 0.0000000000000000e+00  0.0000000000000000e+00 0.0000000000000000e+00 0.0000000000000000e+00  0.0000000000000000e+00 0.0000000000000000e+00 0.0000000000000000e+00  4.9997593714015718e-05 4.7097878715974856e-04 0.0000000000000000e+00  -5.1455360083098180e-05 4.4839888847355951e-04 0.0000000000000000e+00  3.7065675653058153e-04 9.7999999999999997e-04 0.0000000000000000e+00  3.6468483858943270e-04 9.7999999999999997e-04 0.0000000000000000e+00  3.5868205144908515e-04 9.7999999999999997e-04 0.0000000000000000e+00  3.5257579557976325e-04 9.7999999999999997e-04 0.0000000000000000e+00  3.4644252562743738e-04 9.7999999999999997e-04 0.0000000000000000e+00  3.4023157978453020e-04 9.7999999999999997e-04 0.0000000000000000e+00  3.3398429770055676e-04 9.7999999999999997e-04 0.0000000000000000e+00  3.2767014802032902e-04 9.7999999999999997e-04 0.0000000000000000e+00  3.2133739435273812e-04 9.7999999999999997e-04 0.0000000000000000e+00  3.1494598856798774e-04 9.7999999999999997e-04 0.0000000000000000e+00  3.0851887094106604e-04 9.7999999999999997e-04 0.0000000000000000e+00  3.0208282476580140e-04 9.7999999999999997e-04 0.0000000000000000e+00  2.9557813039517763e-04 9.7999999999999997e-04 0.0000000000000000e+00  2.8906984741473575e-04 9.7999999999999997e-04 0.0000000000000000e+00  2.8254774058851588e-04 9.7999999999999997e-04 0.0000000000000000e+00  2.7601472175921906e-04 9.7999999999999997e-04 0.0000000000000000e+00  2.6943285125284990e-04 9.7999999999999997e-04 0.0000000000000000e+00  2.6285822391549073e-04 9.7999999999999997e-04 0.0000000000000000e+00  2.5629000761909112e-04 9.7999999999999997e-04 0.0000000000000000e+00  2.4968923432252827e-04 9.7999999999999997e-04 0.0000000000000000e+00  2.4309536328253462e-04 9.7999999999999997e-04 0.0000000000000000e+00  2.3650411418521224e-04 9.7999999999999997e-04 0.0000000000000000e+00  2.2992291162758147e-04 9.7999999999999997e-04 0.0000000000000000e+00  2.2335535424720124e-04 9.7999999999999997e-04 0.0000000000000000e+00  2.1676130512860212e-04 9.7999999999999997e-04 0.0000000000000000e+00  2.1018482278296077e-04 9.7999999999999997e-04 0.0000000000000000e+00  2.0362441688591900e-04 9.7999999999999997e-04 0.0000000000000000e+00  1.9706723477180187e-04 9.7999999999999997e-04 0.0000000000000000e+00  1.9052012161497193e-04 9.7999999999999997e-04 0.0000000000000000e+00  1.8398420087757756e-04 9.7999999999999997e-04 0.0000000000000000e+00  1.7745041206507965e-04 9.7999999999999997e-04 0.0000000000000000e+00  1.7092538990089553e-04 9.7999999999999997e-04 0.0000000000000000e+00  1.6441043850366920e-04 9.7999999999999997e-04 0.0000000000000000e+00  1.5790531837203876e-04 9.7999999999999997e-04 0.0000000000000000e+00  1.5138796484656731e-04 9.7999999999999997e-04 0.0000000000000000e+00  1.4487934683168630e-04 9.7999999999999997e-04 0.0000000000000000e+00  1.3836616527722144e-04 9.7999999999999997e-04 0.0000000000000000e+00  1.3185152587990629e-04 9.7999999999999997e-04 0.0000000000000000e+00  1.2532422944712906e-04 9.7999999999999997e-04 0.0000000000000000e+00  1.1878871884157542e-04 9.7999999999999997e-04 0.0000000000000000e+00  1.1224049306213540e-04 9.7999999999999997e-04 0.0000000000000000e+00  1.0567248646880850e-04 9.7999999999999997e-04 0.0000000000000000e+00  9.9080479485339000e-05 9.7999999999999997e-04 0.0000000000000000e+00  9.2461837816823942e-05 9.7999999999999997e-04 0.0000000000000000e+00  8.5810695790275134e-05 9.7999999999999997e-04 0.0000000000000000e+00  7.9123483445687015e-05 9.7999999999999997e-04 0.0000000000000000e+00  7.2399310981964215e-05 9.7999999999999997e-04 0.0000000000000000e+00  6.5626159051206475e-05 9.7999999999999997e-04 0.0000000000000000e+00  5.8801032950160499e-05 9.7999999999999997e-04 0.0000000000000000e+00  5.1929906708914422e-05 9.7999999999999997e-04 0.0000000000000000e+00  4.4999261921002052e-05 9.7999999999999997e-04 0.0000000000000000e+00  3.8012986449275788e-05 9.7999999999999997e-04 0.0000000000000000e+00  3.0968331186159103e-05 9.7999999999999997e-04 0.0000000000000000e+00  2.3842470115138576e-05 9.7999999999999997e-04 0.0000000000000000e+00  1.6689255315224677e-05 9.7999999999999997e-04 0.0000000000000000e+00  9.4717838775863471e-06 9.7999999999999997e-04 0.0000000000000000e+00  2.2031389830913557e-06 9.7999999999999997e-04 0.0000000000000000e+00  -5.1167735045049319e-06 9.7999999999999997e-04 0.0000000000000000e+00  -1.2460242621000152e-05 9.7999999999999997e-04 0.0000000000000000e+00  -1.9837809141184884e-05 9.7999999999999997e-04 0.0000000000000000e+00  -2.7170877553890736e-05 9.7999999999999997e-04 0.0000000000000000e+00  -3.4493679184274099e-05 9.7999999999999997e-04 0.0000000000000000e+00  -4.1767847077731386e-05 9.7999999999999997e-04 0.0000000000000000e+00  -4.8979147707047731e-05 9.7999999999999997e-04 0.0000000000000000e+00  -5.6089492770222702e-05 9.7999999999999997e-04 0.0000000000000000e+00  -6.3003452814758935e-05 9.7999999999999997e-04 0.0000000000000000e+00  -6.9717255255698641e-05 9.7999999999999997e-04 0.0000000000000000e+00  -7.6125124086697725e-05 9.7999999999999997e-04 0.0000000000000000e+00  -8.2298421251510064e-05 9.7999999999999997e-04 0.0000000000000000e+00  -8.8213039284941772e-05 9.7999999999999997e-04 0.0000000000000000e+00  -9.3695317996358117e-05 9.7999999999999997e-04 0.0000000000000000e+00  -9.8666445067152167e-05 9.7999999999999997e-04 0.0000000000000000e+00  -1.0318170168242829e-04 9.7999999999999997e-04 0.0000000000000000e+00  -1.0729474962366493e-04 9.7999999999999997e-04 0.0000000000000000e+00  -1.1074949664266953e-04 9.7999999999999997e-04 0.0000000000000000e+00  -1.1374189673413078e-04 9.7999999999999997e-04 0.0000000000000000e+00  -1.1615346240901471e-04 9.7999999999999997e-04 0.0000000000000000e+00  -1.1794057280961739e-04 9.7999999999999997e-04 0.0000000000000000e+00  -1.1919372631543597e-04 9.7999999999999997e-04 0.0000000000000000e+00  -1.1993868526936296e-04 9.7999999999999997e-04 0.0000000000000000e+00  -1.2014446552474891e-04 9.7999999999999997e-04 0.0000000000000000e+00  -1.1983368684236325e-04 9.7999999999999997e-04 0.0000000000000000e+00  -1.1903470709103119e-04 9.7999999999999997e-04 0.0000000000000000e+00  -1.1779520077710122e-04 9.7999999999999997e-04 0.0000000000000000e+00  -1.1621248437985940e-04 9.7999999999999997e-04 0.0000000000000000e+00  -1.1430435062997075e-04 9.7999999999999997e-04 0.0000000000000000e+00  -1.1204254294210239e-04 9.7999999999999997e-04 0.0000000000000000e+00  -1.0948722843055869e-04 9.7999999999999997e-04 0.0000000000000000e+00  -1.0675545505791858e-04 9.7999999999999997e-04 0.0000000000000000e+00  -1.0383980274654752e-04 9.7999999999999997e-04 0.0000000000000000e+00  -1.0077507137189983e-04 9.7999999999999997e-04 0.0000000000000000e+00  -9.7538586304869401e-05 9.7999999999999997e-04 0.0000000000000000e+00  -9.4231401545890667e-05 9.7999999999999997e-04 0.0000000000000000e+00  -9.0856945096633697e-05 9.7999999999999997e-04 0.0000000000000000e+00  -8.7449605800408165e-05 9.7999999999999997e-04 0.0000000000000000e+00  -8.3984159128829201e-05 9.7999999999999997e-04 0.0000000000000000e+00  -8.0528741578843321e-05 9.7999999999999997e-04 0.0000000000000000e+00  -7.7084849258475280e-05 9.7999999999999997e-04 0.0000000000000000e+00  -7.3653816236601076e-05 9.7999999999999997e-04 0.0000000000000000e+00  -7.0249352728032801e-05 9.7999999999999997e-04 0.0000000000000000e+00  -6.6887638526094275e-05 9.7999999999999997e-04 0.0000000000000000e+00  -6.3576163675525555e-05 9.7999999999999997e-04 0.0000000000000000e+00  -6.0286446229569075e-05 9.7999999999999997e-04 0.0000000000000000e+00  -5.7061770552351047e-05 9.7999999999999997e-04 0.0000000000000000e+00  -5.3893520187614833e-05 9.7999999999999997e-04 0.0000000000000000e+00  -5.0785156513700155e-05 9.7999999999999997e-04 0.0000000000000000e+00  -4.7736936121079977e-05 9.7999999999999997e-04 0.0000000000000000e+00  -4.4737226550749605e-05 9.7999999999999997e-04 0.0000000000000000e+00  -4.1794844672915942e-05 9.7999999999999997e-04 0.0000000000000000e+00  -3.8910352739023292e-05 9.7999999999999997e-04 0.0000000000000000e+00  -3.6077982816664742e-05 9.7999999999999997e-04 0.0000000000000000e+00  -3.3297892467235296e-05 9.7999999999999997e-04 0.0000000000000000e+00  -3.0554975038513571e-05 9.7999999999999997e-04 0.0000000000000000e+00  -2.7861268666685585e-05 9.7999999999999997e-04 0.0000000000000000e+00  -2.5205683248329960e-05 9.7999999999999997e-04 0.0000000000000000e+00  -2.2590390020689233e-05 9.7999999999999997e-04 0.0000000000000000e+00  -2.0006620018288143e-05 9.7999999999999997e-04 0.0000000000000000e+00  -1.7455452545802469e-05 9.7999999999999997e-04 0.0000000000000000e+00  -1.4931412884675134e-05 9.7999999999999997e-04 0.0000000000000000e+00  -1.2430819939825156e-05 9.7999999999999997e-04 0.0000000000000000e+00  -9.9510968171937716e-06 9.7999999999999997e-04 0.0000000000000000e+00  -7.4881881623823242e-06 9.7999999999999997e-04 0.0000000000000000e+00  -5.0379280355483503e-06 9.7999999999999997e-04 0.0000000000000000e+00  -2.5958204632058709e-06 9.7999999999999997e-04 0.0000000000000000e+00  -1.6033596876700321e-07 9.7999999999999997e-04 0.0000000000000000e+00  2.2719820725768546e-06 9.7999999999999997e-04 0.0000000000000000e+00  4.7070771966057616e-06 9.7999999999999997e-04 0.0000000000000000e+00  7.1465295823279085e-06 9.7999999999999997e-04 0.0000000000000000e+00  9.5949660820731074e-06 9.7999999999999997e-04 0.0000000000000000e+00  1.2055281555474447e-05 9.7999999999999997e-04 0.0000000000000000e+00  1.4532641181568938e-05 9.7999999999999997e-04 0.0000000000000000e+00  1.7031045524592444e-05 9.7999999999999997e-04 0.0000000000000000e+00  1.9556230954985192e-05 9.7999999999999997e-04 0.0000000000000000e+00  2.2110297386784743e-05 9.7999999999999997e-04 0.0000000000000000e+00  2.4692927749952129e-05 9.7999999999999997e-04 0.0000000000000000e+00  2.7312413326571606e-05 9.7999999999999997e-04 0.0000000000000000e+00  2.9972759815690309e-05 9.7999999999999997e-04 0.0000000000000000e+00  3.2676813178804014e-05 9.7999999999999997e-04 0.0000000000000000e+00  3.5427168564163900e-05 9.7999999999999997e-04 0.0000000000000000e+00  3.8229159375772897e-05 9.7999999999999997e-04 0.0000000000000000e+00  4.1079962601805704e-05 9.7999999999999997e-04 0.0000000000000000e+00  4.3990574965577303e-05 9.7999999999999997e-04 0.0000000000000000e+00  4.6959577007557886e-05 9.7999999999999997e-04 0.0000000000000000e+00  4.9975337388669210e-05 9.7999999999999997e-04 0.0000000000000000e+00  5.3057075715681911e-05 9.7999999999999997e-04 0.0000000000000000e+00  5.6197962851964660e-05 9.7999999999999997e-04 0.0000000000000000e+00  5.9395309241072124e-05 9.7999999999999997e-04 0.0000000000000000e+00  6.2649396932786908e-05 9.7999999999999997e-04 0.0000000000000000e+00  6.5951880191631948e-05 9.7999999999999997e-04 0.0000000000000000e+00  6.9330643812902840e-05 9.7999999999999997e-04 0.0000000000000000e+00  7.2717948203153244e-05 9.7999999999999997e-04 0.0000000000000000e+00  7.6149952947690802e-05 9.7999999999999997e-04 0.0000000000000000e+00  7.9614816103905931e-05 9.7999999999999997e-04 0.0000000000000000e+00  8.3103482882599595e-05 9.7999999999999997e-04 0.0000000000000000e+00  8.6571090457456733e-05 9.7999999999999997e-04 0.0000000000000000e+00  9.0032721966676582e-05 9.7999999999999997e-04 0.0000000000000000e+00  9.3454007193405150e-05 9.7999999999999997e-04 0.0000000000000000e+00  9.6821168210391986e-05 9.7999999999999997e-04 0.0000000000000000e+00  1.0011862980384343e-04 9.7999999999999997e-04 0.0000000000000000e+00  1.0325774366088093e-04 9.7999999999999997e-04 0.0000000000000000e+00  1.0625055104567804e-04 9.7999999999999997e-04 0.0000000000000000e+00  1.0902437014631775e-04 9.7999999999999997e-04 0.0000000000000000e+00  1.1165119018377093e-04 9.7999999999999997e-04 0.0000000000000000e+00  1.1397548200172891e-04 9.7999999999999997e-04 0.0000000000000000e+00  1.1597059629317375e-04 9.7999999999999997e-04 0.0000000000000000e+00  1.1766259259121998e-04 9.7999999999999997e-04 0.0000000000000000e+00  1.1890140729420808e-04 9.7999999999999997e-04 0.0000000000000000e+00  1.1983886564092073e-04 9.7999999999999997e-04 0.0000000000000000e+00  1.2028748896269178e-04 9.7999999999999997e-04 0.0000000000000000e+00  1.2015263846138855e-04 9.7999999999999997e-04 0.0000000000000000e+00  1.1944575151497585e-04 9.7999999999999997e-04 0.0000000000000000e+00  1.1824401511695870e-04 9.7999999999999997e-04 0.0000000000000000e+00  1.1644033323982494e-04 9.7999999999999997e-04 0.0000000000000000e+00  1.1403762502388317e-04 9.7999999999999997e-04 0.0000000000000000e+00  1.1109553251998268e-04 9.7999999999999997e-04 0.0000000000000000e+00  1.0754931648344786e-04 9.7999999999999997e-04 0.0000000000000000e+00  1.0366906347084738e-04 9.7999999999999997e-04 0.0000000000000000e+00  9.9090799572288602e-05 9.7999999999999997e-04 0.0000000000000000e+00  9.4064198754547542e-05 9.7999999999999997e-04 0.0000000000000000e+00  8.8614086370106951e-05 9.7999999999999997e-04 0.0000000000000000e+00  8.2758770465476611e-05 9.7999999999999997e-04 0.0000000000000000e+00  7.6607333861031750e-05 9.7999999999999997e-04 0.0000000000000000e+00  7.0095032478664315e-05 9.7999999999999997e-04 0.0000000000000000e+00  6.3390827250139580e-05 9.7999999999999997e-04 0.0000000000000000e+00  5.6433720797860445e-05 9.7999999999999997e-04 0.0000000000000000e+00  4.9342063077325030e-05 9.7999999999999997e-04 0.0000000000000000e+00  4.2138592018131128e-05 9.7999999999999997e-04 0.0000000000000000e+00  3.4860624211330345e-05 9.7999999999999997e-04 0.0000000000000000e+00  2.7497701896866500e-05 9.7999999999999997e-04 0.0000000000000000e+00  2.0134032792164242e-05 9.7999999999999997e-04 0.0000000000000000e+00  1.2756388967557361e-05 9.7999999999999997e-04 0.0000000000000000e+00  5.3999719324606218e-06 9.7999999999999997e-04 0.0000000000000000e+00  -1.9259531084556203e-06 9.7999999999999997e-04 0.0000000000000000e+00  -9.2093155437893460e-06 9.7999999999999997e-04 0.0000000000000000e+00  -1.6443571993611789e-05 9.7999999999999997e-04 0.0000000000000000e+00  -2.3620711596721260e-05 9.7999999999999997e-04 0.0000000000000000e+00  -3.0733953559319374e-05 9.7999999999999997e-04 0.0000000000000000e+00  -3.7800917720703322e-05 9.7999999999999997e-04 0.0000000000000000e+00  -4.4798300671002954e-05 9.7999999999999997e-04 0.0000000000000000e+00  -5.1730830535481325e-05 9.7999999999999997e-04 0.0000000000000000e+00  -5.8619214083051419e-05 9.7999999999999997e-04 0.0000000000000000e+00  -6.5445381625123288e-05 9.7999999999999997e-04 0.0000000000000000e+00  -7.2226380385675699e-05 9.7999999999999997e-04 0.0000000000000000e+00  -7.8960936087365177e-05 9.7999999999999997e-04 0.0000000000000000e+00  -8.5655018560921537e-05 9.7999999999999997e-04 0.0000000000000000e+00  -9.2312169604160353e-05 9.7999999999999997e-04 0.0000000000000000e+00  -9.8933086038516870e-05 9.7999999999999997e-04 0.0000000000000000e+00  -1.0552932276219559e-04 9.7999999999999997e-04 0.0000000000000000e+00  -1.1210312637377814e-04 9.7999999999999997e-04 0.0000000000000000e+00  -1.1865912545405050e-04 9.7999999999999997e-04 0.0000000000000000e+00  -1.2519979668636975e-04 9.7999999999999997e-04 0.0000000000000000e+00  -1.3172348595620064e-04 9.7999999999999997e-04 0.0000000000000000e+00  -1.3824136673667645e-04 9.7999999999999997e-04 0.0000000000000000e+00  -1.4475713273287804e-04 9.7999999999999997e-04 0.0000000000000000e+00  -1.5127500004692861e-04 9.7999999999999997e-04 0.0000000000000000e+00  -1.5778095700115562e-04 9.7999999999999997e-04 0.0000000000000000e+00  -1.6429635575386742e-04 9.7999999999999997e-04 0.0000000000000000e+00  -1.7082052253151385e-04 9.7999999999999997e-04 0.0000000000000000e+00  -1.7733907587315085e-04 9.7999999999999997e-04 0.0000000000000000e+00  -1.8387056279201128e-04 9.7999999999999997e-04 0.0000000000000000e+00  -1.9041222604428766e-04 9.7999999999999997e-04 0.0000000000000000e+00  -1.9696602602649557e-04 9.7999999999999997e-04 0.0000000000000000e+00  -2.0352471265423441e-04 9.7999999999999997e-04 0.0000000000000000e+00  -2.1008446423238805e-04 9.7999999999999997e-04 0.0000000000000000e+00  -2.1665510818266368e-04 9.7999999999999997e-04 0.0000000000000000e+00  -2.2323863120073001e-04 9.7999999999999997e-04 0.0000000000000000e+00  -2.2982291095859970e-04 9.7999999999999997e-04 0.0000000000000000e+00  -2.3640988583780188e-04 9.7999999999999997e-04 0.0000000000000000e+00  -2.4299911974207808e-04 9.7999999999999997e-04 0.0000000000000000e+00  -2.4959352100727139e-04 9.7999999999999997e-04 0.0000000000000000e+00  -2.5617779876764985e-04 9.7999999999999997e-04 0.0000000000000000e+00  -2.6276457757151819e-04 9.7999999999999997e-04 0.0000000000000000e+00  -2.6933282958747104e-04 9.7999999999999997e-04 0.0000000000000000e+00  -2.7589914693529083e-04 9.7999999999999997e-04 0.0000000000000000e+00  -2.8245286577981745e-04 9.7999999999999997e-04 0.0000000000000000e+00  -2.8897941038420288e-04 9.7999999999999997e-04 0.0000000000000000e+00  -2.9548754926388712e-04 9.7999999999999997e-04 0.0000000000000000e+00  -3.0197331969459911e-04 9.7999999999999997e-04 0.0000000000000000e+00  -3.0842825512886001e-04 9.7999999999999997e-04 0.0000000000000000e+00  -3.1484474365254259e-04 9.7999999999999997e-04 0.0000000000000000e+00  -3.2124182916832449e-04 9.7999999999999997e-04 0.0000000000000000e+00  -3.2758910667934590e-04 9.7999999999999997e-04 0.0000000000000000e+00  -3.3389064641283406e-04 9.7999999999999997e-04 0.0000000000000000e+00  -3.4014385011824484e-04 9.7999999999999997e-04 0.0000000000000000e+00  -3.4633904241129071e-04 9.7999999999999997e-04 0.0000000000000000e+00  -3.5248497457221917e-04 9.7999999999999997e-04 0.0000000000000000e+00  -3.5858175246813643e-04 9.7999999999999997e-04 0.0000000000000000e+00  -3.6459321074075153e-04 9.7999999999999997e-04 0.0000000000000000e+00  -3.7056501790033464e-04 9.7999999999999997e-04 0.0000000000000000e+00  -3.7639322687007474e-04 9.6236654623568871e-04 0.0000000000000000e+00  -3.7608625653144293e-04 9.4473051416515182e-04 0.0000000000000000e+00  -3.7565367418899889e-04 9.2709220442256126e-04 0.0000000000000000e+00  -3.7498334127965694e-04 9.0945164877477612e-04 0.0000000000000000e+00  -3.7414419061651262e-04 8.9183328876703608e-04 0.0000000000000000e+00  -3.7307598957549365e-04 8.7417573082101518e-04 0.0000000000000000e+00  -3.7184009041668490e-04 8.5655099166617244e-04 0.0000000000000000e+00  -3.7041493272155278e-04 8.3889769878158036e-04 0.0000000000000000e+00  -3.6877205527794955e-04 8.2124698207702157e-04 0.0000000000000000e+00  -3.6692563926976271e-04 8.0361960069495839e-04 0.0000000000000000e+00  -3.6487578395686532e-04 7.8595324658064147e-04 0.0000000000000000e+00  -3.6261400072961541e-04 7.6829521458099750e-04 0.0000000000000000e+00  -3.6014372394781895e-04 7.5061234349320632e-04 0.0000000000000000e+00  -3.5744132714755228e-04 7.3296294164067015e-04 0.0000000000000000e+00  -3.5452824785841826e-04 7.1525324240201036e-04 0.0000000000000000e+00  -3.5137385335471018e-04 6.9752027049146720e-04 0.0000000000000000e+00  -3.4798096221224056e-04 6.7981069384863912e-04 0.0000000000000000e+00  -3.4434642576593145e-04 6.6204263089178548e-04 0.0000000000000000e+00  -3.4045386261584128e-04 6.4429187351544819e-04 0.0000000000000000e+00  -3.3630461062886014e-04 6.2649745312386076e-04 0.0000000000000000e+00  -3.3189796122840958e-04 6.0862491246659013e-04 0.0000000000000000e+00  -3.2720123729085043e-04 5.9078698727336911e-04 0.0000000000000000e+00  -3.2222727015560222e-04 5.7284816019337976e-04 0.0000000000000000e+00  -3.1694015573694394e-04 5.5489868741988020e-04 0.0000000000000000e+00  -3.1137311419257617e-04 5.3685512256217865e-04 0.0000000000000000e+00  -3.0545899073177666e-04 5.1880829027114756e-04 0.0000000000000000e+00  -2.9924749799424875e-04 5.0060584076259485e-04 0.0000000000000000e+00  