<?xml version="1.0"?>
<VTKFile type="UnstructuredGrid"  version="0.1"  >
<UnstructuredGrid>
<Piece  NumberOfPoints="16512" NumberOfCells="32424">
<Points>
<DataArray  type="Float64"  NumberOfComponents="3"  format="ascii">-25 4.9 0  25 4.9 0  25 -4.9 0  -25 -4.9 0  -10 0 0  10 0 0  -24.80000000000034 4.9 0  -24.60000000000068 4.9 0  -24.40000000000101 4.9 0  -24.20000000000135 4.9 0  -24.00000000000169 4.9 0  -23.80000000000203 4.9 0  -23.60000000000237 4.9 0  -23.40000000000271 4.9 0  -23.20000000000304 4.9 0  -23.00000000000338 4.9 0  -22.80000000000372 4.9 0  -22.60000000000406 4.9 0  -22.40000000000439 4.9 0  -22.20000000000473 4.9 0  -22.00000000000507 4.9 0  -21.80000000000541 4.9 0  -21.60000000000575 4.9 0  -21.40000000000608 4.9 0  -21.20000000000642 4.9 0  -21.00000000000676 4.9 0  -20.8000000000071 4.9 0  -20.60000000000744 4.9 0  -20.40000000000777 4.9 0  -20.20000000000811 4.9 0  -20.00000000000845 4.9 0  -19.80000000000879 4.9 0  -19.60000000000912 4.9 0  -19.40000000000946 4.9 0  -19.2000000000098 4.9 0  -19.00000000001039 4.9 0  -18.80000000001108 4.9 0  -18.60000000001231 4.9 0  -18.40000000001371 4.9 0  -18.2000000000154 4.9 0  -18.00000000001716 4.9 0  -17.80000000001892 4.9 0  -17.60000000002067 4.9 0  -17.40000000002243 4.9 0  -17.20000000002419 4.9 0  -17.00000000002595 4.9 0  -16.80000000002771 4.9 0  -16.60000000002947 4.9 0  -16.40000000003123 4.9 0  -16.20000000003299 4.9 0  -16.00000000003472 4.9 0  -15.80000000003612 4.9 0  -15.60000000003748 4.9 0  -15.40000000003853 4.9 0  -15.20000000003958 4.9 0  -15.00000000004063 4.9 0  -14.80000000004168 4.9 0  -14.60000000004273 4.9 0  -14.40000000004377 4.9 0  -14.20000000004482 4.9 0  -14.00000000004587 4.9 0  -13.80000000004692 4.9 0  -13.60000000004797 4.9 0  -13.40000000004902 4.9 0  -13.20000000005007 4.9 0  -13.00000000005111 4.9 0  -12.80000000005216 4.9 0  -12.60000000005321 4.9 0  -12.40000000005426 4.9 0  -12.20000000005531 4.9 0  -12.00000000005636 4.9 0  -11.80000000005741 4.9 0  -11.60000000005846 4.9 0  -11.4000000000595 4.9 0  -11.20000000006055 4.9 0  -11.0000000000616 4.9 0  -10.80000000006265 4.9 0  -10.6000000000637 4.9 0  -10.40000000006475 4.9 0  -10.2000000000658 4.9 0  -10.00000000006684 4.9 0  -9.800000000067891 4.9 0  -9.60000000006894 4.9 0  -9.400000000069989 4.9 0  -9.200000000070727 4.9 0  -9.00000000007142 4.9 0  -8.800000000071787 4.9 0  -8.600000000072125 4.9 0  -8.400000000072467 4.9 0  -8.200000000072805 4.9 0  -8.000000000073143 4.9 0  -7.800000000073481 4.9 0  -7.60000000007382 4.9 0  -7.400000000074154 4.9 0  -7.200000000074493 4.9 0  -7.000000000074831 4.9 0  -6.800000000075173 4.9 0  -6.600000000075511 4.9 0  -6.400000000075849 4.9 0  -6.200000000076187 4.9 0  -6.000000000076525 4.9 0  -5.800000000076867 4.9 0  -5.600000000077205 4.9 0  -5.400000000077544 4.9 0  -5.200000000077882 4.9 0  -5.00000000007822 4.9 0  -4.800000000078558 4.9 0  -4.600000000078897 4.9 0  -4.400000000079235 4.9 0  -4.200000000079573 4.9 0  -4.000000000079908 4.9 0  -3.800000000080246 4.9 0  -3.600000000080588 4.9 0  -3.400000000080926 4.9 0  -3.200000000081264 4.9 0  -3.000000000081606 4.9 0  -2.800000000081944 4.9 0  -2.600000000082282 4.9 0  -2.40000000008262 4.9 0  -2.200000000082959 4.9 0  -2.000000000083297 4.9 0  -1.800000000083635 4.9 0  -1.600000000083973 4.9 0  -1.400000000084312 4.9 0  -1.20000000008465 4.9 0  -1.000000000084988 4.9 0  -0.8000000000853262 4.9 0  -0.6000000000856645 4.9 0  -0.4000000000860027 4.9 0  -0.2000000000863409 4.9 0  -8.667910833537462e-11 4.9 0  0.1999999999129827 4.9 0  0.3999999999126409 4.9 0  0.5999999999123027 4.9 0  0.7999999999119716 4.9 0  0.9999999999116262 4.9 0  1.199999999911295 4.9 0  1.39999999991095 4.9 0  1.599999999910619 4.9 0  1.799999999910273 4.9 0  1.999999999909939 4.9 0  2.199999999909597 4.9 0  2.399999999909262 4.9 0  2.599999999908921 4.9 0  2.799999999908582 4.9 0  2.999999999908244 4.9 0  3.199999999907906 4.9 0  3.399999999907564 4.9 0  3.599999999907226 4.9 0  3.799999999906888 4.9 0  3.999999999906549 4.9 0  4.199999999906218 4.9 0  4.399999999905873 4.9 0  4.599999999905542 4.9 0  4.799999999905197 4.9 0  4.999999999904865 4.9 0  5.19999999990452 4.9 0  5.399999999904182 4.9 0  5.599999999903844 4.9 0  5.799999999903505 4.9 0  5.999999999903167 4.9 0  6.199999999902829 4.9 0  6.399999999902491 4.9 0  6.599999999902153 4.9 0  6.799999999902379 4.9 0  6.999999999902752 4.9 0  7.199999999903724 4.9 0  7.399999999904807 4.9 0  7.59999999990589 4.9 0  7.799999999906966 4.9 0  7.999999999908056 4.9 0  8.199999999909132 4.9 0  8.399999999910214 4.9 0  8.59999999991129 4.9 0  8.79999999991238 4.9 0  8.999999999913456 4.9 0  9.199999999914539 4.9 0  9.399999999915622 4.9 0  9.599999999916704 4.9 0  9.79999999991778 4.9 0  9.99999999991887 4.9 0  10.19999999991995 4.9 0  10.39999999992103 4.9 0  10.59999999992212 4.9 0  10.79999999992319 4.9 0  10.99999999992428 4.9 0  11.19999999992536 4.9 0  11.39999999992644 4.9 0  11.59999999992752 4.9 0  11.7999999999286 4.9 0  11.99999999992968 4.9 0  12.19999999993077 4.9 0  12.39999999993184 4.9 0  12.59999999993293 4.9 0  12.79999999993401 4.9 0  12.99999999993509 4.9 0  13.19999999993617 4.9 0  13.39999999993726 4.9 0  13.59999999993834 4.9 0  13.79999999993942 4.9 0  13.99999999994051 4.9 0  14.19999999994158 4.9 0  14.39999999994266 4.9 0  14.59999999994375 4.9 0  14.79999999994483 4.9 0  14.99999999994591 4.9 0  15.199999999947 4.9 0  15.39999999994807 4.9 0  15.59999999994915 4.9 0  15.79999999995024 4.9 0  15.99999999995132 4.9 0  16.1999999999524 4.9 0  16.39999999995349 4.9 0  16.59999999995456 4.9 0  16.79999999995565 4.9 0  16.99999999995674 4.9 0  17.19999999995781 4.9 0  17.39999999995889 4.9 0  17.59999999995997 4.9 0  17.79999999996106 4.9 0  17.99999999996214 4.9 0  18.19999999996322 4.9 0  18.3999999999643 4.9 0  18.59999999996538 4.9 0  18.79999999996646 4.9 0  18.99999999996755 4.9 0  19.19999999996863 4.9 0  19.39999999996971 4.9 0  19.59999999997079 4.9 0  19.79999999997187 4.9 0  19.99999999997296 4.9 0  20.19999999997404 4.9 0  20.39999999997512 4.9 0  20.5999999999762 4.9 0  20.79999999997728 4.9 0  20.99999999997836 4.9 0  21.19999999997945 4.9 0  21.39999999998052 4.9 0  21.59999999998161 4.9 0  21.79999999998269 4.9 0  21.99999999998377 4.9 0  22.19999999998485 4.9 0  22.39999999998594 4.9 0  22.59999999998701 4.9 0  22.7999999999881 4.9 0  22.99999999998919 4.9 0  23.19999999999026 4.9 0  23.39999999999135 4.9 0  23.59999999999243 4.9 0  23.79999999999351 4.9 0  23.99999999999459 4.9 0  24.19999999999568 4.9 0  24.39999999999675 4.9 0  24.59999999999783 4.9 0  24.79999999999892 4.9 0  25 4.700000000000415 0  25 4.500000000000868 0  25 4.300000000001562 0  25 4.100000000001831 0  25 3.900000000002072 0  25 3.700000000002459 0  25 3.500000000003038 0  25 3.300000000003653 0  25 3.100000000004294 0  25 2.900000000004838 0  25 2.700000000005293 0  25 2.500000000005957 0  25 2.300000000006508 0  25 2.100000000007153 0  25 1.900000000007722 0  25 1.700000000008417 0  25 1.500000000008938 0  25 1.30000000000963 0  25 1.100000000010154 0  25 0.9000000000108268 0  25 0.7000000000114559 0  25 0.5000000000119762 0  25 0.3000000000126564 0  25 0.1000000000131926 0  25 -0.09999999998679243 0  25 -0.2999999999874587 0  25 -0.4999999999878586 0  25 -0.6999999999884441 0  25 -0.899999999988804 0  25 -1.099999999989427 0  25 -1.299999999989749 0  25 -1.499999999990411 0  25 -1.69999999999073 0  25 -1.899999999991396 0  25 -2.099999999991715 0  25 -2.299999999992381 0  25 -2.499999999993047 0  25 -2.699999999993714 0  25 -2.899999999994227 0  25 -3.099999999994698 0  25 -3.299999999994673 0  25 -3.499999999995339 0  25 -3.699999999996004 0  25 -3.89999999999667 0  25 -4.099999999997335 0  25 -4.299999999998002 0  25 -4.499999999998668 0  25 -4.699999999999335 0  24.80000000000034 -4.9 0  24.60000000000068 -4.9 0  24.40000000000101 -4.9 0  24.20000000000135 -4.9 0  24.00000000000169 -4.9 0  23.80000000000203 -4.9 0  23.60000000000237 -4.9 0  23.40000000000271 -4.9 0  23.20000000000304 -4.9 0  23.00000000000338 -4.9 0  22.80000000000372 -4.9 0  22.60000000000406 -4.9 0  22.40000000000439 -4.9 0  22.20000000000473 -4.9 0  22.00000000000507 -4.9 0  21.80000000000541 -4.9 0  21.60000000000575 -4.9 0  21.40000000000608 -4.9 0  21.20000000000642 -4.9 0  21.00000000000676 -4.9 0  20.8000000000071 -4.9 0  20.60000000000744 -4.9 0  20.40000000000777 -4.9 0  20.20000000000811 -4.9 0  20.00000000000845 -4.9 0  19.80000000000879 -4.9 0  19.60000000000912 -4.9 0  19.40000000000946 -4.9 0  19.2000000000098 -4.9 0  19.00000000001039 -4.9 0  18.80000000001108 -4.9 0  18.60000000001231 -4.9 0  18.40000000001371 -4.9 0  18.2000000000154 -4.9 0  18.00000000001716 -4.9 0  17.80000000001892 -4.9 0  17.60000000002067 -4.9 0  17.40000000002243 -4.9 0  17.20000000002419 -4.9 0  17.00000000002595 -4.9 0  16.80000000002771 -4.9 0  16.60000000002947 -4.9 0  16.40000000003123 -4.9 0  16.20000000003299 -4.9 0  16.00000000003472 -4.9 0  15.80000000003612 -4.9 0  15.60000000003748 -4.9 0  15.40000000003853 -4.9 0  15.20000000003958 -4.9 0  15.00000000004063 -4.9 0  14.80000000004168 -4.9 0  14.60000000004273 -4.9 0  14.40000000004377 -4.9 0  14.20000000004482 -4.9 0  14.00000000004587 -4.9 0  13.80000000004692 -4.9 0  13.60000000004797 -4.9 0  13.40000000004902 -4.9 0  13.20000000005007 -4.9 0  13.00000000005111 -4.9 0  12.80000000005216 -4.9 0  12.60000000005321 -4.9 0  12.40000000005426 -4.9 0  12.20000000005531 -4.9 0  12.00000000005636 -4.9 0  11.80000000005741 -4.9 0  11.60000000005846 -4.9 0  11.4000000000595 -4.9 0  11.20000000006055 -4.9 0  11.0000000000616 -4.9 0  10.80000000006265 -4.9 0  10.6000000000637 -4.9 0  10.40000000006475 -4.9 0  10.2000000000658 -4.9 0  10.00000000006684 -4.9 0  9.800000000067891 -4.9 0  9.60000000006894 -4.9 0  9.400000000069989 -4.9 0  9.200000000070727 -4.9 0  9.00000000007142 -4.9 0  8.800000000071787 -4.9 0  8.600000000072125 -4.9 0  8.400000000072467 -4.9 0  8.200000000072805 -4.9 0  8.000000000073143 -4.9 
[...]
<PointData  Vectors="f_7"> 
<DataArray  type="Float64"  Name="f_7"  NumberOfComponents="3" format="ascii">2.0197367121497242e-04 4.7500000000000005e-04 0.0000000000000000e+00  -2.0216089379859300e-04 4.7500000000000005e-04 0.0000000000000000e+00  0.0000000000000000e+00 0.0000000000000000e+00 0.0000000000000000e+00  0.0000000000000000e+00 0.0000000000000000e+00 0.0000000000000000e+00  3.5410657815266947e-05 2.3818919003547188e-04 0.0000000000000000e+00  -3.4661673894408367e-05 2.3415087402301713e-04 0.0000000000000000e+00  1.9918044820160121e-04 4.7500000000000005e-04 0.0000000000000000e+00  1.9636695850048887e-04 4.7500000000000005e-04 0.0000000000000000e+00  1.9353634833662868e-04 4.7500000000000005e-04 0.0000000000000000e+00  1.9064710117704627e-04 4.7500000000000005e-04 0.0000000000000000e+00  1.8774489464880810e-04 4.7500000000000005e-04 0.0000000000000000e+00  1.8480022267391413e-04 4.7500000000000005e-04 0.0000000000000000e+00  1.8183831687306349e-04 4.7500000000000005e-04 0.0000000000000000e+00  1.7884215703977384e-04 4.7500000000000005e-04 0.0000000000000000e+00  1.7583912323030341e-04 4.7500000000000005e-04 0.0000000000000000e+00  1.7280753584657371e-04 4.7500000000000005e-04 0.0000000000000000e+00  1.6976073628314817e-04 4.7500000000000005e-04 0.0000000000000000e+00  1.6671375676528583e-04 4.7500000000000005e-04 0.0000000000000000e+00  1.6363361991785473e-04 4.7500000000000005e-04 0.0000000000000000e+00  1.6055720991250977e-04 4.7500000000000005e-04 0.0000000000000000e+00  1.5747860151565663e-04 4.7500000000000005e-04 0.0000000000000000e+00  1.5440026245880657e-04 4.7500000000000005e-04 0.0000000000000000e+00  1.5130091137113008e-04 4.7500000000000005e-04 0.0000000000000000e+00  1.4821322848002956e-04 4.7500000000000005e-04 0.0000000000000000e+00  1.4513521210254753e-04 4.7500000000000005e-04 0.0000000000000000e+00  1.4204675406186205e-04 4.7500000000000005e-04 0.0000000000000000e+00  1.3897039767991391e-04 4.7500000000000005e-04 0.0000000000000000e+00  1.3590337059024761e-04 4.7500000000000005e-04 0.0000000000000000e+00  1.3285068692144678e-04 4.7500000000000005e-04 0.0000000000000000e+00  1.2981401181819290e-04 4.7500000000000005e-04 0.0000000000000000e+00  1.2677042680950566e-04 4.7500000000000005e-04 0.0000000000000000e+00  1.2374734009176682e-04 4.7500000000000005e-04 0.0000000000000000e+00  1.2074302033372648e-04 4.7500000000000005e-04 0.0000000000000000e+00  1.1775057186895577e-04 4.7500000000000005e-04 0.0000000000000000e+00  1.1477432159258897e-04 4.7500000000000005e-04 0.0000000000000000e+00  1.1181602356199242e-04 4.7500000000000005e-04 0.0000000000000000e+00  1.0887083115039111e-04 4.7500000000000005e-04 0.0000000000000000e+00  1.0594332669361094e-04 4.7500000000000005e-04 0.0000000000000000e+00  1.0303351280273725e-04 4.7500000000000005e-04 0.0000000000000000e+00  1.0014414878479408e-04 4.7500000000000005e-04 0.0000000000000000e+00  9.7259617535030976e-05 4.7500000000000005e-04 0.0000000000000000e+00  9.4397076198626643e-05 4.7500000000000005e-04 0.0000000000000000e+00  9.1547814745131736e-05 4.7500000000000005e-04 0.0000000000000000e+00  8.8716221160217129e-05 4.7500000000000005e-04 0.0000000000000000e+00  8.5892602805359513e-05 4.7500000000000005e-04 0.0000000000000000e+00  8.3083909395958159e-05 4.7500000000000005e-04 0.0000000000000000e+00  8.0288490998864804e-05 4.7500000000000005e-04 0.0000000000000000e+00  7.7502950837006764e-05 4.7500000000000005e-04 0.0000000000000000e+00  7.4725928103240447e-05 4.7500000000000005e-04 0.0000000000000000e+00  7.1956420929270552e-05 4.7500000000000005e-04 0.0000000000000000e+00  6.9192430672060959e-05 4.7500000000000005e-04 0.0000000000000000e+00  6.6433818710579006e-05 4.7500000000000005e-04 0.0000000000000000e+00  6.3679237805045537e-05 4.7500000000000005e-04 0.0000000000000000e+00  6.0926201574937459e-05 4.7500000000000005e-04 0.0000000000000000e+00  5.8174010799029289e-05 4.7500000000000005e-04 0.0000000000000000e+00  5.5422426338043122e-05 4.7500000000000005e-04 0.0000000000000000e+00  5.2668400727081310e-05 4.7500000000000005e-04 0.0000000000000000e+00  4.9910781872696221e-05 4.7500000000000005e-04 0.0000000000000000e+00  4.7150839379389597e-05 4.7500000000000005e-04 0.0000000000000000e+00  4.4384552446031603e-05 4.7500000000000005e-04 0.0000000000000000e+00  4.1618266273376524e-05 4.7500000000000005e-04 0.0000000000000000e+00  3.8847847575298624e-05 4.7500000000000005e-04 0.0000000000000000e+00  3.6074744774207164e-05 4.7500000000000005e-04 0.0000000000000000e+00  3.3299988952442860e-05 4.7500000000000005e-04 0.0000000000000000e+00  3.0529168624468513e-05 4.7500000000000005e-04 0.0000000000000000e+00  2.7761256015998705e-05 4.7500000000000005e-04 0.0000000000000000e+00  2.5013538893593326e-05 4.7500000000000005e-04 0.0000000000000000e+00  2.2279613975787042e-05 4.7500000000000005e-04 0.0000000000000000e+00  1.9569065602642498e-05 4.7500000000000005e-04 0.0000000000000000e+00  1.6886178645266217e-05 4.7500000000000005e-04 0.0000000000000000e+00  1.4242786197403961e-05 4.7500000000000005e-04 0.0000000000000000e+00  1.1660339906614291e-05 4.7500000000000005e-04 0.0000000000000000e+00  9.1438892249184663e-06 4.7500000000000005e-04 0.0000000000000000e+00  6.7225360080848132e-06 4.7500000000000005e-04 0.0000000000000000e+00  4.3765830317177551e-06 4.7500000000000005e-04 0.0000000000000000e+00  2.1123117232588168e-06 4.7500000000000005e-04 0.0000000000000000e+00  -2.1221388094250898e-08 4.7500000000000005e-04 0.0000000000000000e+00  -2.0012943845079811e-06 4.7500000000000005e-04 0.0000000000000000e+00  -3.8433457490931787e-06 4.7500000000000005e-04 0.0000000000000000e+00  -5.5620238737722772e-06 4.7500000000000005e-04 0.0000000000000000e+00  -7.0865099170702225e-06 4.7500000000000005e-04 0.0000000000000000e+00  -8.4703488522084309e-06 4.7500000000000005e-04 0.0000000000000000e+00  -9.6792377981997750e-06 4.7500000000000005e-04 0.0000000000000000e+00  -1.0701478327134057e-05 4.7500000000000005e-04 0.0000000000000000e+00  -1.1563048280876595e-05 4.7500000000000005e-04 0.0000000000000000e+00  -1.2271595015717073e-05 4.7500000000000005e-04 0.0000000000000000e+00  -1.2818182737712837e-05 4.7500000000000005e-04 0.0000000000000000e+00  -1.3209326935803574e-05 4.7500000000000005e-04 0.0000000000000000e+00  -1.3453330819292089e-05 4.7500000000000005e-04 0.0000000000000000e+00  -1.3564855128196495e-05 4.7500000000000005e-04 0.0000000000000000e+00  -1.3572262918787636e-05 4.7500000000000005e-04 0.0000000000000000e+00  -1.3481163166924513e-05 4.7500000000000005e-04 0.0000000000000000e+00  -1.3284441272688434e-05 4.7500000000000005e-04 0.0000000000000000e+00  -1.3000231778578082e-05 4.7500000000000005e-04 0.0000000000000000e+00  -1.2662489726302740e-05 4.7500000000000005e-04 0.0000000000000000e+00  -1.2269772494842422e-05 4.7500000000000005e-04 0.0000000000000000e+00  -1.1832947528063004e-05 4.7500000000000005e-04 0.0000000000000000e+00  -1.1348045646113949e-05 4.7500000000000005e-04 0.0000000000000000e+00  -1.0843062834198879e-05 4.7500000000000005e-04 0.0000000000000000e+00  -1.0320218882398408e-05 4.7500000000000005e-04 0.0000000000000000e+00  -9.7899413554459767e-06 4.7500000000000005e-04 0.0000000000000000e+00  -9.2474208695956386e-06 4.7500000000000005e-04 0.0000000000000000e+00  -8.7108277206834669e-06 4.7500000000000005e-04 0.0000000000000000e+00  -8.1817038419331328e-06 4.7500000000000005e-04 0.0000000000000000e+00  -7.6619488340699499e-06 4.7500000000000005e-04 0.0000000000000000e+00  -7.1557870888516195e-06 4.7500000000000005e-04 0.0000000000000000e+00  -6.6674440016542514e-06 4.7500000000000005e-04 0.0000000000000000e+00  -6.1999218630825856e-06 4.7500000000000005e-04 0.0000000000000000e+00  -5.7474036272843176e-06 4.7500000000000005e-04 0.0000000000000000e+00  -5.3194485438518694e-06 4.7500000000000005e-04 0.0000000000000000e+00  -4.9150386371834714e-06 4.7500000000000005e-04 0.0000000000000000e+00  -4.5358343939341177e-06 4.7500000000000005e-04 0.0000000000000000e+00  -4.1804774602111967e-06 4.7500000000000005e-04 0.0000000000000000e+00  -3.8479025208313754e-06 4.7500000000000005e-04 0.0000000000000000e+00  -3.5377578276537623e-06 4.7500000000000005e-04 0.0000000000000000e+00  -3.2515668945767150e-06 4.7500000000000005e-04 0.0000000000000000e+00  -2.9868560260402498e-06 4.7500000000000005e-04 0.0000000000000000e+00  -2.7425172023482160e-06 4.7500000000000005e-04 0.0000000000000000e+00  -2.5152149845106891e-06 4.7500000000000005e-04 0.0000000000000000e+00  -2.3065312409110497e-06 4.7500000000000005e-04 0.0000000000000000e+00  -2.1120650259810799e-06 4.7500000000000005e-04 0.0000000000000000e+00  -1.9327000315647913e-06 4.7500000000000005e-04 0.0000000000000000e+00  -1.7643146540764623e-06 4.7500000000000005e-04 0.0000000000000000e+00  -1.6067473240377484e-06 4.7500000000000005e-04 0.0000000000000000e+00  -1.4574680981596648e-06 4.7500000000000005e-04 0.0000000000000000e+00  -1.3144951735199112e-06 4.7500000000000005e-04 0.0000000000000000e+00  -1.1763236657122948e-06 4.7500000000000005e-04 0.0000000000000000e+00  -1.0409470621431635e-06 4.7500000000000005e-04 0.0000000000000000e+00  -9.0584375445559846e-07 4.7500000000000005e-04 0.0000000000000000e+00  -7.6995919925133283e-07 4.7500000000000005e-04 0.0000000000000000e+00  -6.3169942560696851e-07 4.7500000000000005e-04 0.0000000000000000e+00  -4.8964351176035343e-07 4.7500000000000005e-04 0.0000000000000000e+00  -3.4036699075815771e-07 4.7500000000000005e-04 0.0000000000000000e+00  -1.8475630314513804e-07 4.7500000000000005e-04 0.0000000000000000e+00  -2.0837695369356568e-08 4.7500000000000005e-04 0.0000000000000000e+00  1.5423709089908017e-07 4.7500000000000005e-04 0.0000000000000000e+00  3.4050370175457982e-07 4.7500000000000005e-04 0.0000000000000000e+00  5.3958533120911881e-07 4.7500000000000005e-04 0.0000000000000000e+00  7.5327691557407972e-07 4.7500000000000005e-04 0.0000000000000000e+00  9.8061792341891908e-07 4.7500000000000005e-04 0.0000000000000000e+00  1.2226561616057951e-06 4.7500000000000005e-04 0.0000000000000000e+00  1.4802231308832767e-06 4.7500000000000005e-04 0.0000000000000000e+00  1.7547093053753344e-06 4.7500000000000005e-04 0.0000000000000000e+00  2.0458377312858699e-06 4.7500000000000005e-04 0.0000000000000000e+00  2.3542504778537498e-06 4.7500000000000005e-04 0.0000000000000000e+00  2.6806885272229196e-06 4.7500000000000005e-04 0.0000000000000000e+00  3.0244805515471895e-06 4.7500000000000005e-04 0.0000000000000000e+00  3.3878729422374141e-06 4.7500000000000005e-04 0.0000000000000000e+00  3.7698917439209958e-06 4.7500000000000005e-04 0.0000000000000000e+00  4.1684215031996054e-06 4.7500000000000005e-04 0.0000000000000000e+00  4.5873427522539186e-06 4.7500000000000005e-04 0.0000000000000000e+00  5.0248667761511629e-06 4.7500000000000005e-04 0.0000000000000000e+00  5.4812139693360157e-06 4.7500000000000005e-04 0.0000000000000000e+00  5.9556015152534533e-06 4.7500000000000005e-04 0.0000000000000000e+00  6.4455508160281097e-06 4.7500000000000005e-04 0.0000000000000000e+00  6.9588577741256005e-06 4.7500000000000005e-04 0.0000000000000000e+00  7.4766612664100527e-06 4.7500000000000005e-04 0.0000000000000000e+00  8.0083996009559594e-06 4.7500000000000005e-04 0.0000000000000000e+00  8.5500625494886441e-06 4.7500000000000005e-04 0.0000000000000000e+00  9.0987880079580411e-06 4.7500000000000005e-04 0.0000000000000000e+00  9.6415642091608145e-06 4.7500000000000005e-04 0.0000000000000000e+00  1.0181452045924879e-05 4.7500000000000005e-04 0.0000000000000000e+00  1.0708453304588554e-05 4.7500000000000005e-04 0.0000000000000000e+00  1.1217477195334571e-05 4.7500000000000005e-04 0.0000000000000000e+00  1.1703249047640441e-05 4.7500000000000005e-04 0.0000000000000000e+00  1.2140541016432042e-05 4.7500000000000005e-04 0.0000000000000000e+00  1.2531063433817155e-05 4.7500000000000005e-04 0.0000000000000000e+00  1.2853648562321817e-05 4.7500000000000005e-04 0.0000000000000000e+00  1.3128827183352231e-05 4.7500000000000005e-04 0.0000000000000000e+00  1.3311106155927151e-05 4.7500000000000005e-04 0.0000000000000000e+00  1.3392600216185495e-05 4.7500000000000005e-04 0.0000000000000000e+00  1.3381054972472246e-05 4.7500000000000005e-04 0.0000000000000000e+00  1.3232584551081742e-05 4.7500000000000005e-04 0.0000000000000000e+00  1.2991448127335068e-05 4.7500000000000005e-04 0.0000000000000000e+00  1.2603539234320276e-05 4.7500000000000005e-04 0.0000000000000000e+00  1.2040690801149409e-05 4.7500000000000005e-04 0.0000000000000000e+00  1.1310045222322011e-05 4.7500000000000005e-04 0.0000000000000000e+00  1.0430927734314913e-05 4.7500000000000005e-04 0.0000000000000000e+00  9.3736049392005644e-06 4.7500000000000005e-04 0.0000000000000000e+00  8.1394391831178967e-06 4.7500000000000005e-04 0.0000000000000000e+00  6.7448804959913602e-06 4.7500000000000005e-04 0.0000000000000000e+00  5.1743854694064323e-06 4.7500000000000005e-04 0.0000000000000000e+00  3.5018497797232039e-06 4.7500000000000005e-04 0.0000000000000000e+00  1.6283517496880931e-06 4.7500000000000005e-04 0.0000000000000000e+00  -3.7848528193981511e-07 4.7500000000000005e-04 0.0000000000000000e+00  -2.5108005132314435e-06 4.7500000000000005e-04 0.0000000000000000e+00  -4.7636424647212014e-06 4.7500000000000005e-04 0.0000000000000000e+00  -7.1070261278418867e-06 4.7500000000000005e-04 0.0000000000000000e+00  -9.5563457664114078e-06 4.7500000000000005e-04 0.0000000000000000e+00  -1.2067424996201764e-05 4.7500000000000005e-04 0.0000000000000000e+00  -1.4656273609974982e-05 4.7500000000000005e-04 0.0000000000000000e+00  -1.7290302347853106e-05 4.7500000000000005e-04 0.0000000000000000e+00  -1.9963630398077630e-05 4.7500000000000005e-04 0.0000000000000000e+00  -2.2667226013154032e-05 4.7500000000000005e-04 0.0000000000000000e+00  -2.5401865561777766e-05 4.7500000000000005e-04 0.0000000000000000e+00  -2.8147199780513228e-05 4.7500000000000005e-04 0.0000000000000000e+00  -3.0906233067250739e-05 4.7500000000000005e-04 0.0000000000000000e+00  -3.3669827277119319e-05 4.7500000000000005e-04 0.0000000000000000e+00  -3.6436007848334980e-05 4.7500000000000005e-04 0.0000000000000000e+00  -3.9202163140125969e-05 4.7500000000000005e-04 0.0000000000000000e+00  -4.1966178617321953e-05 4.7500000000000005e-04 0.0000000000000000e+00  -4.4727021266996120e-05 4.7500000000000005e-04 0.0000000000000000e+00  -4.7483513986662055e-05 4.7500000000000005e-04 0.0000000000000000e+00  -5.0237245031223753e-05 4.7500000000000005e-04 0.0000000000000000e+00  -5.2987710035745775e-05 4.7500000000000005e-04 0.0000000000000000e+00  -5.5736024321571575e-05 4.7500000000000005e-04 0.0000000000000000e+00  -5.8481644201028667e-05 4.7500000000000005e-04 0.0000000000000000e+00  -6.1226236999165545e-05 4.7500000000000005e-04 0.0000000000000000e+00  -6.3972587621825321e-05 4.7500000000000005e-04 0.0000000000000000e+00  -6.6720940898160543e-05 4.7500000000000005e-04 0.0000000000000000e+00  -6.9473872551677779e-05 4.7500000000000005e-04 0.0000000000000000e+00  -7.2231946471828449e-05 4.7500000000000005e-04 0.0000000000000000e+00  -7.4995401973493523e-05 4.7500000000000005e-04 0.0000000000000000e+00  -7.7767594468479978e-05 4.7500000000000005e-04 0.0000000000000000e+00  -8.0549879672375962e-05 4.7500000000000005e-04 0.0000000000000000e+00  -8.3344103143944591e-05 4.7500000000000005e-04 0.0000000000000000e+00  -8.6149698260694631e-05 4.7500000000000005e-04 0.0000000000000000e+00  -8.8962492211550442e-05 4.7500000000000005e-04 0.0000000000000000e+00  -9.1792342047933195e-05 4.7500000000000005e-04 0.0000000000000000e+00  -9.4637608887636609e-05 4.7500000000000005e-04 0.0000000000000000e+00  -9.7501319718109111e-05 4.7500000000000005e-04 0.0000000000000000e+00  -1.0037118870056658e-04 4.7500000000000005e-04 0.0000000000000000e+00  -1.0326276597181321e-04 4.7500000000000005e-04 0.0000000000000000e+00  -1.0617448707796979e-04 4.7500000000000005e-04 0.0000000000000000e+00  -1.0909531885073320e-04 4.7500000000000005e-04 0.0000000000000000e+00  -1.1203616751636286e-04 4.7500000000000005e-04 0.0000000000000000e+00  -1.1499437212124829e-04 4.7500000000000005e-04 0.0000000000000000e+00  -1.1797068762508793e-04 4.7500000000000005e-04 0.0000000000000000e+00  -1.2096081219516916e-04 4.7500000000000005e-04 0.0000000000000000e+00  -1.2396289007660517e-04 4.7500000000000005e-04 0.0000000000000000e+00  -1.2698027160878094e-04 4.7500000000000005e-04 0.0000000000000000e+00  -1.3001417141760628e-04 4.7500000000000005e-04 0.0000000000000000e+00  -1.3305847413870014e-04 4.7500000000000005e-04 0.0000000000000000e+00  -1.3611287629618470e-04 4.7500000000000005e-04 0.0000000000000000e+00  -1.3917736977879958e-04 4.7500000000000005e-04 0.0000000000000000e+00  -1.4225229561099870e-04 4.7500000000000005e-04 0.0000000000000000e+00  -1.4532963880929133e-04 4.7500000000000005e-04 0.0000000000000000e+00  -1.4841618686730766e-04 4.7500000000000005e-04 0.0000000000000000e+00  -1.5149901955578289e-04 4.7500000000000005e-04 0.0000000000000000e+00  -1.5458796755639872e-04 4.7500000000000005e-04 0.0000000000000000e+00  -1.5767652186155954e-04 4.7500000000000005e-04 0.0000000000000000e+00  -1.6075638434614561e-04 4.7500000000000005e-04 0.0000000000000000e+00  -1.6383189294370734e-04 4.7500000000000005e-04 0.0000000000000000e+00  -1.6690042506689105e-04 4.7500000000000005e-04 0.0000000000000000e+00  -1.6995708233378157e-04 4.7500000000000005e-04 0.0000000000000000e+00  -1.7299735756635067e-04 4.7500000000000005e-04 0.0000000000000000e+00  -1.7603113372592004e-04 4.7500000000000005e-04 0.0000000000000000e+00  -1.7904131747947599e-04 4.7500000000000005e-04 0.0000000000000000e+00  -1.8202956971235067e-04 4.7500000000000005e-04 0.0000000000000000e+00  -1.8499397045076152e-04 4.7500000000000005e-04 0.0000000000000000e+00  -1.8792835821820821e-04 4.7500000000000005e-04 0.0000000000000000e+00  -1.9083713324073571e-04 4.7500000000000005e-04 0.0000000000000000e+00  -1.9372005283232029e-04 4.7500000000000005e-04 0.0000000000000000e+00  -1.9655461628290279e-04 4.7500000000000005e-04 0.0000000000000000e+00  -1.9936712699757765e-04 4.7500000000000005e-04 0.0000000000000000e+00  -2.0209485158854710e-04 4.6672681019211266e-04 0.0000000000000000e+00  -2.0191154274940460e-04 4.5845127376222390e-04 0.0000000000000000e+00  -2.0165294783555188e-04 4.5017313140386663e-04 0.0000000000000000e+00  -2.0125312724215760e-04 4.4189188600347493e-04 0.0000000000000000e+00  -2.0075307097719124e-04 4.3362097147524184e-04 0.0000000000000000e+00  -2.0011693898666383e-04 4.2532425426175427e-04 0.0000000000000000e+00  -1.9938175983446834e-04 4.1704316184175769e-04 0.0000000000000000e+00  -1.9853560307265500e-04 4.0874076202530266e-04 0.0000000000000000e+00  -1.9756202672750999e-04 4.0043509126379983e-04 0.0000000000000000e+00  -1.9646858344280030e-04 3.9213743703801388e-04 0.0000000000000000e+00  -1.9525902979436653e-04 3.8381119864662548e-04 0.0000000000000000e+00  -1.9392538102061096e-04 3.7548348609903675e-04 0.0000000000000000e+00  -1.9247422958006081e-04 3.6713456034907766e-04 0.0000000000000000e+00  -1.9088935496397325e-04 3.5879695889601910e-04 0.0000000000000000e+00  -1.8918597606325745e-04 3.5041788989793296e-04 0.0000000000000000e+00  -1.8734764020496305e-04 3.4201751326606920e-04 0.0000000000000000e+00  -1.8537450659286841e-04 3.3362123113442175e-04 0.0000000000000000e+00  -1.8326983092005310e-04 3.2518344268390732e-04 0.0000000000000000e+00  -1.8102071260147004e-04 3.1674571955610741e-04 0.0000000000000000e+00  -1.7863132380556415e-04 3.0827341904378542e-04 0.0000000000000000e+00  -1.7610471403147241e-04 2.9974877852867454e-04 0.0000000000000000e+00  -1.7341821367387723e-04 2.9123220033723611e-04 0.0000000000000000e+00  -1.7058656771481146e-04 2.8265067349715335e-04 0.0000000000000000e+00  -1.6758379830745699e-04 2.7405235796625933e-04 0.0000000000000000e+00  -1.6443707959877809e-04 2.6539235078317912e-04 0.0000000000000000e+00  -1.6110420408798178e-04 2.5671811964167663e-04 0.0000000000000000e+00  -1.5762053823280213e-04 2.4794958922013559e-04 0.0000000000000000e