<?xml version="1.0"?>
<VTKFile type="UnstructuredGrid"  version="0.1"  >
<UnstructuredGrid>
<Piece  NumberOfPoints="16512" NumberOfCells="32424">
<Points>
<DataArray  type="Float64"  NumberOfComponents="3"  format="ascii">-25 4.9 0  25 4.9 0  25 -4.9 0  -25 -4.9 0  -10 0 0  10 0 0  -24.80000000000034 4.9 0  -24.60000000000068 4.9 0  -24.40000000000101 4.9 0  -24.20000000000135 4.9 0  -24.00000000000169 4.9 0  -23.80000000000203 4.9 0  -23.60000000000237 4.9 0  -23.40000000000271 4.9 0  -23.20000000000304 4.9 0  -23.00000000000338 4.9 0  -22.80000000000372 4.9 0  -22.60000000000406 4.9 0  -22.40000000000439 4.9 0  -22.20000000000473 4.9 0  -22.00000000000507 4.9 0  -21.80000000000541 4.9 0  -21.60000000000575 4.9 0  -21.40000000000608 4.9 0  -21.20000000000642 4.9 0  -21.00000000000676 4.9 0  -20.8000000000071 4.9 0  -20.60000000000744 4.9 0  -20.40000000000777 4.9 0  -20.20000000000811 4.9 0  -20.00000000000845 4.9 0  -19.80000000000879 4.9 0  -19.60000000000912 4.9 0  -19.40000000000946 4.9 0  -19.2000000000098 4.9 0  -19.00000000001039 4.9 0  -18.80000000001108 4.9 0  -18.60000000001231 4.9 0  -18.40000000001371 4.9 0  -18.2000000000154 4.9 0  -18.00000000001716 4.9 0  -17.80000000001892 4.9 0  -17.60000000002067 4.9 0  -17.40000000002243 4.9 0  -17.20000000002419 4.9 0  -17.00000000002595 4.9 0  -16.80000000002771 4.9 0  -16.60000000002947 4.9 0  -16.40000000003123 4.9 0  -16.20000000003299 4.9 0  -16.00000000003472 4.9 0  -15.80000000003612 4.9 0  -15.60000000003748 4.9 0  -15.40000000003853 4.9 0  -15.20000000003958 4.9 0  -15.00000000004063 4.9 0  -14.80000000004168 4.9 0  -14.60000000004273 4.9 0  -14.40000000004377 4.9 0  -14.20000000004482 4.9 0  -14.00000000004587 4.9 0  -13.80000000004692 4.9 0  -13.60000000004797 4.9 0  -13.40000000004902 4.9 0  -13.20000000005007 4.9 0  -13.00000000005111 4.9 0  -12.80000000005216 4.9 0  -12.60000000005321 4.9 0  -12.40000000005426 4.9 0  -12.20000000005531 4.9 0  -12.00000000005636 4.9 0  -11.80000000005741 4.9 0  -11.60000000005846 4.9 0  -11.4000000000595 4.9 0  -11.20000000006055 4.9 0  -11.0000000000616 4.9 0  -10.80000000006265 4.9 0  -10.6000000000637 4.9 0  -10.40000000006475 4.9 0  -10.2000000000658 4.9 0  -10.00000000006684 4.9 0  -9.800000000067891 4.9 0  -9.60000000006894 4.9 0  -9.400000000069989 4.9 0  -9.200000000070727 4.9 0  -9.00000000007142 4.9 0  -8.800000000071787 4.9 0  -8.600000000072125 4.9 0  -8.400000000072467 4.9 0  -8.200000000072805 4.9 0  -8.000000000073143 4.9 0  -7.800000000073481 4.9 0  -7.60000000007382 4.9 0  -7.400000000074154 4.9 0  -7.200000000074493 4.9 0  -7.000000000074831 4.9 0  -6.800000000075173 4.9 0  -6.600000000075511 4.9 0  -6.400000000075849 4.9 0  -6.200000000076187 4.9 0  -6.000000000076525 4.9 0  -5.800000000076867 4.9 0  -5.600000000077205 4.9 0  -5.400000000077544 4.9 0  -5.200000000077882 4.9 0  -5.00000000007822 4.9 0  -4.800000000078558 4.9 0  -4.600000000078897 4.9 0  -4.400000000079235 4.9 0  -4.200000000079573 4.9 0  -4.000000000079908 4.9 0  -3.800000000080246 4.9 0  -3.600000000080588 4.9 0  -3.400000000080926 4.9 0  -3.200000000081264 4.9 0  -3.000000000081606 4.9 0  -2.800000000081944 4.9 0  -2.600000000082282 4.9 0  -2.40000000008262 4.9 0  -2.200000000082959 4.9 0  -2.000000000083297 4.9 0  -1.800000000083635 4.9 0  -1.600000000083973 4.9 0  -1.400000000084312 4.9 0  -1.20000000008465 4.9 0  -1.000000000084988 4.9 0  -0.8000000000853262 4.9 0  -0.6000000000856645 4.9 0  -0.4000000000860027 4.9 0  -0.2000000000863409 4.9 0  -8.667910833537462e-11 4.9 0  0.1999999999129827 4.9 0  0.3999999999126409 4.9 0  0.5999999999123027 4.9 0  0.7999999999119716 4.9 0  0.9999999999116262 4.9 0  1.199999999911295 4.9 0  1.39999999991095 4.9 0  1.599999999910619 4.9 0  1.799999999910273 4.9 0  1.999999999909939 4.9 0  2.199999999909597 4.9 0  2.399999999909262 4.9 0  2.599999999908921 4.9 0  2.799999999908582 4.9 0  2.999999999908244 4.9 0  3.199999999907906 4.9 0  3.399999999907564 4.9 0  3.599999999907226 4.9 0  3.799999999906888 4.9 0  3.999999999906549 4.9 0  4.199999999906218 4.9 0  4.399999999905873 4.9 0  4.599999999905542 4.9 0  4.799999999905197 4.9 0  4.999999999904865 4.9 0  5.19999999990452 4.9 0  5.399999999904182 4.9 0  5.599999999903844 4.9 0  5.799999999903505 4.9 0  5.999999999903167 4.9 0  6.199999999902829 4.9 0  6.399999999902491 4.9 0  6.599999999902153 4.9 0  6.799999999902379 4.9 0  6.999999999902752 4.9 0  7.199999999903724 4.9 0  7.399999999904807 4.9 0  7.59999999990589 4.9 0  7.799999999906966 4.9 0  7.999999999908056 4.9 0  8.199999999909132 4.9 0  8.399999999910214 4.9 0  8.59999999991129 4.9 0  8.79999999991238 4.9 0  8.999999999913456 4.9 0  9.199999999914539 4.9 0  9.399999999915622 4.9 0  9.599999999916704 4.9 0  9.79999999991778 4.9 0  9.99999999991887 4.9 0  10.19999999991995 4.9 0  10.39999999992103 4.9 0  10.59999999992212 4.9 0  10.79999999992319 4.9 0  10.99999999992428 4.9 0  11.19999999992536 4.9 0  11.39999999992644 4.9 0  11.59999999992752 4.9 0  11.7999999999286 4.9 0  11.99999999992968 4.9 0  12.19999999993077 4.9 0  12.39999999993184 4.9 0  12.59999999993293 4.9 0  12.79999999993401 4.9 0  12.99999999993509 4.9 0  13.19999999993617 4.9 0  13.39999999993726 4.9 0  13.59999999993834 4.9 0  13.79999999993942 4.9 0  13.99999999994051 4.9 0  14.19999999994158 4.9 0  14.39999999994266 4.9 0  14.59999999994375 4.9 0  14.79999999994483 4.9 0  14.99999999994591 4.9 0  15.199999999947 4.9 0  15.39999999994807 4.9 0  15.59999999994915 4.9 0  15.79999999995024 4.9 0  15.99999999995132 4.9 0  16.1999999999524 4.9 0  16.39999999995349 4.9 0  16.59999999995456 4.9 0  16.79999999995565 4.9 0  16.99999999995674 4.9 0  17.19999999995781 4.9 0  17.39999999995889 4.9 0  17.59999999995997 4.9 0  17.79999999996106 4.9 0  17.99999999996214 4.9 0  18.19999999996322 4.9 0  18.3999999999643 4.9 0  18.59999999996538 4.9 0  18.79999999996646 4.9 0  18.99999999996755 4.9 0  19.19999999996863 4.9 0  19.39999999996971 4.9 0  19.59999999997079 4.9 0  19.79999999997187 4.9 0  19.99999999997296 4.9 0  20.19999999997404 4.9 0  20.39999999997512 4.9 0  20.5999999999762 4.9 0  20.79999999997728 4.9 0  20.99999999997836 4.9 0  21.19999999997945 4.9 0  21.39999999998052 4.9 0  21.59999999998161 4.9 0  21.79999999998269 4.9 0  21.99999999998377 4.9 0  22.19999999998485 4.9 0  22.39999999998594 4.9 0  22.59999999998701 4.9 0  22.7999999999881 4.9 0  22.99999999998919 4.9 0  23.19999999999026 4.9 0  23.39999999999135 4.9 0  23.59999999999243 4.9 0  23.79999999999351 4.9 0  23.99999999999459 4.9 0  24.19999999999568 4.9 0  24.39999999999675 4.9 0  24.59999999999783 4.9 0  24.79999999999892 4.9 0  25 4.700000000000415 0  25 4.500000000000868 0  25 4.300000000001562 0  25 4.100000000001831 0  25 3.900000000002072 0  25 3.700000000002459 0  25 3.500000000003038 0  25 3.300000000003653 0  25 3.100000000004294 0  25 2.900000000004838 0  25 2.700000000005293 0  25 2.500000000005957 0  25 2.300000000006508 0  25 2.100000000007153 0  25 1.900000000007722 0  25 1.700000000008417 0  25 1.500000000008938 0  25 1.30000000000963 0  25 1.100000000010154 0  25 0.9000000000108268 0  25 0.7000000000114559 0  25 0.5000000000119762 0  25 0.3000000000126564 0  25 0.1000000000131926 0  25 -0.09999999998679243 0  25 -0.2999999999874587 0  25 -0.4999999999878586 0  25 -0.6999999999884441 0  25 -0.899999999988804 0  25 -1.099999999989427 0  25 -1.299999999989749 0  25 -1.499999999990411 0  25 -1.69999999999073 0  25 -1.899999999991396 0  25 -2.099999999991715 0  25 -2.299999999992381 0  25 -2.499999999993047 0  25 -2.699999999993714 0  25 -2.899999999994227 0  25 -3.099999999994698 0  25 -3.299999999994673 0  25 -3.499999999995339 0  25 -3.699999999996004 0  25 -3.89999999999667 0  25 -4.099999999997335 0  25 -4.299999999998002 0  25 -4.499999999998668 0  25 -4.699999999999335 0  24.80000000000034 -4.9 0  24.60000000000068 -4.9 0  24.40000000000101 -4.9 0  24.20000000000135 -4.9 0  24.00000000000169 -4.9 0  23.80000000000203 -4.9 0  23.60000000000237 -4.9 0  23.40000000000271 -4.9 0  23.20000000000304 -4.9 0  23.00000000000338 -4.9 0  22.80000000000372 -4.9 0  22.60000000000406 -4.9 0  22.40000000000439 -4.9 0  22.20000000000473 -4.9 0  22.00000000000507 -4.9 0  21.80000000000541 -4.9 0  21.60000000000575 -4.9 0  21.40000000000608 -4.9 0  21.20000000000642 -4.9 0  21.00000000000676 -4.9 0  20.8000000000071 -4.9 0  20.60000000000744 -4.9 0  20.40000000000777 -4.9 0  20.20000000000811 -4.9 0  20.00000000000845 -4.9 0  19.80000000000879 -4.9 0  19.60000000000912 -4.9 0  19.40000000000946 -4.9 0  19.2000000000098 -4.9 0  19.00000000001039 -4.9 0  18.80000000001108 -4.9 0  18.60000000001231 -4.9 0  18.40000000001371 -4.9 0  18.2000000000154 -4.9 0  18.00000000001716 -4.9 0  17.80000000001892 -4.9 0  17.60000000002067 -4.9 0  17.40000000002243 -4.9 0  17.20000000002419 -4.9 0  17.00000000002595 -4.9 0  16.80000000002771 -4.9 0  16.60000000002947 -4.9 0  16.40000000003123 -4.9 0  16.20000000003299 -4.9 0  16.00000000003472 -4.9 0  15.80000000003612 -4.9 0  15.60000000003748 -4.9 0  15.40000000003853 -4.9 0  15.20000000003958 -4.9 0  15.00000000004063 -4.9 0  14.80000000004168 -4.9 0  14.60000000004273 -4.9 0  14.40000000004377 -4.9 0  14.20000000004482 -4.9 0  14.00000000004587 -4.9 0  13.80000000004692 -4.9 0  13.60000000004797 -4.9 0  13.40000000004902 -4.9 0  13.20000000005007 -4.9 0  13.00000000005111 -4.9 0  12.80000000005216 -4.9 0  12.60000000005321 -4.9 0  12.40000000005426 -4.9 0  12.20000000005531 -4.9 0  12.00000000005636 -4.9 0  11.80000000005741 -4.9 0  11.60000000005846 -4.9 0  11.4000000000595 -4.9 0  11.20000000006055 -4.9 0  11.0000000000616 -4.9 0  10.80000000006265 -4.9 0  10.6000000000637 -4.9 0  10.40000000006475 -4.9 0  10.2000000000658 -4.9 0  10.00000000006684 -4.9 0  9.800000000067891 -4.9 0  9.60000000006894 -4.9 0  9.400000000069989 -4.9 0  9.200000000070727 -4.9 0  9.00000000007142 -4.9 0  8.800000000071787 -4.9 0  8.600000000072125 -4.9 0  8.400000000072467 -4.9 0  8.200000000072805 -4.9 0  8.000000000073143 -4.9 
[...]
<PointData  Vectors="f_7"> 
<DataArray  type="Float64"  Name="f_7"  NumberOfComponents="3" format="ascii">2.2325877957480268e-04 5.3000000000000009e-04 0.0000000000000000e+00  -2.2346904156870311e-04 5.3000000000000009e-04 0.0000000000000000e+00  0.0000000000000000e+00 0.0000000000000000e+00 0.0000000000000000e+00  0.0000000000000000e+00 0.0000000000000000e+00 0.0000000000000000e+00  3.8250897788695608e-05 2.6599861737270947e-04 0.0000000000000000e+00  -3.7395802120858094e-05 2.6145033419241337e-04 0.0000000000000000e+00  2.2013311968551081e-04 5.3000000000000009e-04 0.0000000000000000e+00  2.1698515526704100e-04 5.3000000000000009e-04 0.0000000000000000e+00  2.1381832164672006e-04 5.3000000000000009e-04 0.0000000000000000e+00  2.1058697580140804e-04 5.3000000000000009e-04 0.0000000000000000e+00  2.0734116200449255e-04 5.3000000000000009e-04 0.0000000000000000e+00  2.0404848874953056e-04 5.3000000000000009e-04 0.0000000000000000e+00  2.0073655450178346e-04 5.3000000000000009e-04 0.0000000000000000e+00  1.9738660842923183e-04 5.3000000000000009e-04 0.0000000000000000e+00  1.9402877177481464e-04 5.3000000000000009e-04 0.0000000000000000e+00  1.9063910167545187e-04 5.3000000000000009e-04 0.0000000000000000e+00  1.8723224652135182e-04 5.3000000000000009e-04 0.0000000000000000e+00  1.8382475812800503e-04 5.3000000000000009e-04 0.0000000000000000e+00  1.8038027761429118e-04 5.3000000000000009e-04 0.0000000000000000e+00  1.7693938488103897e-04 5.3000000000000009e-04 0.0000000000000000e+00  1.7349557214842279e-04 5.3000000000000009e-04 0.0000000000000000e+00  1.7005148280162534e-04 5.3000000000000009e-04 0.0000000000000000e+00  1.6658368400127775e-04 5.3000000000000009e-04 0.0000000000000000e+00  1.6312805374459950e-04 5.3000000000000009e-04 0.0000000000000000e+00  1.5968252553117461e-04 5.3000000000000009e-04 0.0000000000000000e+00  1.5622480302979514e-04 5.3000000000000009e-04 0.0000000000000000e+00  1.5277967469342469e-04 5.3000000000000009e-04 0.0000000000000000e+00  1.4934412272718571e-04 5.3000000000000009e-04 0.0000000000000000e+00  1.4592359447687070e-04 5.3000000000000009e-04 0.0000000000000000e+00  1.4251995657699103e-04 5.3000000000000009e-04 0.0000000000000000e+00  1.3910801002433820e-04 5.3000000000000009e-04 0.0000000000000000e+00  1.3571770068694666e-04 5.3000000000000009e-04 0.0000000000000000e+00  1.3234720381291530e-04 5.3000000000000009e-04 0.0000000000000000e+00  1.2898889996429961e-04 5.3000000000000009e-04 0.0000000000000000e+00  1.2564751523556214e-04 5.3000000000000009e-04 0.0000000000000000e+00  1.2232488481575071e-04 5.3000000000000009e-04 0.0000000000000000e+00  1.1901565575619203e-04 5.3000000000000009e-04 0.0000000000000000e+00  1.1572480220403254e-04 5.3000000000000009e-04 0.0000000000000000e+00  1.1245239218645474e-04 5.3000000000000009e-04 0.0000000000000000e+00  1.0920121915261814e-04 5.3000000000000009e-04 0.0000000000000000e+00  1.0595436687203690e-04 5.3000000000000009e-04 0.0000000000000000e+00  1.0273026774363412e-04 5.3000000000000009e-04 0.0000000000000000e+00  9.9519441418297511e-05 5.3000000000000009e-04 0.0000000000000000e+00  9.6326498412988045e-05 5.3000000000000009e-04 0.0000000000000000e+00  9.3141054949496350e-05 5.3000000000000009e-04 0.0000000000000000e+00  8.9970387900880098e-05 5.3000000000000009e-04 0.0000000000000000e+00  8.6812607256886941e-05 5.3000000000000009e-04 0.0000000000000000e+00  8.3663924624052767e-05 5.3000000000000009e-04 0.0000000000000000e+00  8.0522752710856046e-05 5.3000000000000009e-04 0.0000000000000000e+00  7.7387947836140205e-05 5.3000000000000009e-04 0.0000000000000000e+00  7.4257191683423465e-05 5.3000000000000009e-04 0.0000000000000000e+00  7.1130170027833438e-05 5.3000000000000009e-04 0.0000000000000000e+00  6.8005458629120721e-05 5.3000000000000009e-04 0.0000000000000000e+00  6.4879934076714820e-05 5.3000000000000009e-04 0.0000000000000000e+00  6.1752728412590107e-05 5.3000000000000009e-04 0.0000000000000000e+00  5.8623890086811687e-05 5.3000000000000009e-04 0.0000000000000000e+00  5.5489608359230034e-05 5.3000000000000009e-04 0.0000000000000000e+00  5.2348844852317426e-05 5.3000000000000009e-04 0.0000000000000000e+00  4.9202681593953350e-05 5.3000000000000009e-04 0.0000000000000000e+00  4.6045960060062656e-05 5.3000000000000009e-04 0.0000000000000000e+00  4.2887534154019191e-05 5.3000000000000009e-04 0.0000000000000000e+00  3.9721397376847358e-05 5.3000000000000009e-04 0.0000000000000000e+00  3.6549566966210171e-05 5.3000000000000009e-04 0.0000000000000000e+00  3.3372903502925970e-05 5.3000000000000009e-04 0.0000000000000000e+00  3.0198212719664811e-05 5.3000000000000009e-04 0.0000000000000000e+00  2.7023792865079288e-05 5.3000000000000009e-04 0.0000000000000000e+00  2.3870702018202596e-05 5.3000000000000009e-04 0.0000000000000000e+00  2.0730724765782203e-05 5.3000000000000009e-04 0.0000000000000000e+00  1.7615145513276816e-05 5.3000000000000009e-04 0.0000000000000000e+00  1.4528861867595450e-05 5.3000000000000009e-04 0.0000000000000000e+00  1.1485142049945794e-05 5.3000000000000009e-04 0.0000000000000000e+00  8.5104628605867724e-06 5.3000000000000009e-04 0.0000000000000000e+00  5.6095933605021941e-06 5.3000000000000009e-04 0.0000000000000000e+00  2.8167197076916389e-06 5.3000000000000009e-04 0.0000000000000000e+00  1.0882766822310725e-07 5.3000000000000009e-04 0.0000000000000000e+00  -2.5065180332872942e-06 5.3000000000000009e-04 0.0000000000000000e+00  -4.9718593966279905e-06 5.3000000000000009e-04 0.0000000000000000e+00  -7.2603848417960800e-06 5.3000000000000009e-04 0.0000000000000000e+00  -9.3898459912701399e-06 5.3000000000000009e-04 0.0000000000000000e+00  -1.1377372745034904e-05 5.3000000000000009e-04 0.0000000000000000e+00  -1.3138461878184527e-05 5.3000000000000009e-04 0.0000000000000000e+00  -1.4736441449242793e-05 5.3000000000000009e-04 0.0000000000000000e+00  -1.6130398766621296e-05 5.3000000000000009e-04 0.0000000000000000e+00  -1.7305374216746652e-05 5.3000000000000009e-04 0.0000000000000000e+00  -1.8291396235143076e-05 5.3000000000000009e-04 0.0000000000000000e+00  -1.9096764850236258e-05 5.3000000000000009e-04 0.0000000000000000e+00  -1.9709897260730871e-05 5.3000000000000009e-04 0.0000000000000000e+00  -2.0137534465549943e-05 5.3000000000000009e-04 0.0000000000000000e+00  -2.0388477491518911e-05 5.3000000000000009e-04 0.0000000000000000e+00  -2.0478889875536861e-05 5.3000000000000009e-04 0.0000000000000000e+00  -2.0442386122196088e-05 5.3000000000000009e-04 0.0000000000000000e+00  -2.0284562438552354e-05 5.3000000000000009e-04 0.0000000000000000e+00  -1.9995370377338819e-05 5.3000000000000009e-04 0.0000000000000000e+00  -1.9595331862142514e-05 5.3000000000000009e-04 0.0000000000000000e+00  -1.9125932115401785e-05 5.3000000000000009e-04 0.0000000000000000e+00  -1.8584567971009468e-05 5.3000000000000009e-04 0.0000000000000000e+00  -1.7983322530267756e-05 5.3000000000000009e-04 0.0000000000000000e+00  -1.7316726566798698e-05 5.3000000000000009e-04 0.0000000000000000e+00  -1.6619328090264644e-05 5.3000000000000009e-04 0.0000000000000000e+00  -1.5893456812703341e-05 5.3000000000000009e-04 0.0000000000000000e+00  -1.5152159001993926e-05 5.3000000000000009e-04 0.0000000000000000e+00  -1.4388160337630612e-05 5.3000000000000009e-04 0.0000000000000000e+00  -1.3626414705841632e-05 5.3000000000000009e-04 0.0000000000000000e+00  -1.2868188932396083e-05 5.3000000000000009e-04 0.0000000000000000e+00  -1.2115771271515018e-05 5.3000000000000009e-04 0.0000000000000000e+00  -1.1375517047854192e-05 5.3000000000000009e-04 0.0000000000000000e+00  -1.0653520578410079e-05 5.3000000000000009e-04 0.0000000000000000e+00  -9.9540318322082119e-06 5.3000000000000009e-04 0.0000000000000000e+00  -9.2704219677756348e-06 5.3000000000000009e-04 0.0000000000000000e+00  -8.6158615502873987e-06 5.3000000000000009e-04 0.0000000000000000e+00  -7.9896543607965417e-06 5.3000000000000009e-04 0.0000000000000000e+00  -7.3947385180014364e-06 5.3000000000000009e-04 0.0000000000000000e+00  -6.8301644027899739e-06 5.3000000000000009e-04 0.0000000000000000e+00  -6.2956970274725631e-06 5.3000000000000009e-04 0.0000000000000000e+00  -5.7912549422740602e-06 5.3000000000000009e-04 0.0000000000000000e+00  -5.3198085770678664e-06 5.3000000000000009e-04 0.0000000000000000e+00  -4.8786909197985896e-06 5.3000000000000009e-04 0.0000000000000000e+00  -4.4667591629097050e-06 5.3000000000000009e-04 0.0000000000000000e+00  -4.0808197645961724e-06 5.3000000000000009e-04 0.0000000000000000e+00  -3.7228952190767612e-06 5.3000000000000009e-04 0.0000000000000000e+00  -3.3869409683832876e-06 5.3000000000000009e-04 0.0000000000000000e+00  -3.0751072869481644e-06 5.3000000000000009e-04 0.0000000000000000e+00  -2.7812459192152954e-06 5.3000000000000009e-04 0.0000000000000000e+00  -2.5055117147363307e-06 5.3000000000000009e-04 0.0000000000000000e+00  -2.2440842940986376e-06 5.3000000000000009e-04 0.0000000000000000e+00  -1.9941263662581932e-06 5.3000000000000009e-04 0.0000000000000000e+00  -1.7532073413178111e-06 5.3000000000000009e-04 0.0000000000000000e+00  -1.5182551965169055e-06 5.3000000000000009e-04 0.0000000000000000e+00  -1.2857167820673780e-06 5.3000000000000009e-04 0.0000000000000000e+00  -1.0530221859445629e-06 5.3000000000000009e-04 0.0000000000000000e+00  -8.1792935211763212e-07 5.3000000000000009e-04 0.0000000000000000e+00  -5.7805322208261690e-07 5.3000000000000009e-04 0.0000000000000000e+00  -3.2801838362240786e-07 5.3000000000000009e-04 0.0000000000000000e+00  -6.8764124638144477e-08 5.3000000000000009e-04 0.0000000000000000e+00  2.0282101143683212e-07 5.3000000000000009e-04 0.0000000000000000e+00  4.9158786700843689e-07 5.3000000000000009e-04 0.0000000000000000e+00  7.9756222786169285e-07 5.3000000000000009e-04 0.0000000000000000e+00  1.1235353489438366e-06 5.3000000000000009e-04 0.0000000000000000e+00  1.4724777032588838e-06 5.3000000000000009e-04 0.0000000000000000e+00  1.8427331306204888e-06 5.3000000000000009e-04 0.0000000000000000e+00  2.2366204924195559e-06 5.3000000000000009e-04 0.0000000000000000e+00  2.6548519027755307e-06 5.3000000000000009e-04 0.0000000000000000e+00  3.0997726888799613e-06 5.3000000000000009e-04 0.0000000000000000e+00  3.5705653914544108e-06 5.3000000000000009e-04 0.0000000000000000e+00  4.0681239765709534e-06 5.3000000000000009e-04 0.0000000000000000e+00  4.5928725709755345e-06 5.3000000000000009e-04 0.0000000000000000e+00  5.1437363178660318e-06 5.3000000000000009e-04 0.0000000000000000e+00  5.7227074474192075e-06 5.3000000000000009e-04 0.0000000000000000e+00  6.3275926908279668e-06 5.3000000000000009e-04 0.0000000000000000e+00  6.9553844476413856e-06 5.3000000000000009e-04 0.0000000000000000e+00  7.6094318492743169e-06 5.3000000000000009e-04 0.0000000000000000e+00  8.2870242743542184e-06 5.3000000000000009e-04 0.0000000000000000e+00  8.9870239587708792e-06 5.3000000000000009e-04 0.0000000000000000e+00  9.7074667340506666e-06 5.3000000000000009e-04 0.0000000000000000e+00  1.0444521201195894e-05 5.3000000000000009e-04 0.0000000000000000e+00  1.1206017765238554e-05 5.3000000000000009e-04 0.0000000000000000e+00  1.1968525396441906e-05 5.3000000000000009e-04 0.0000000000000000e+00  1.2742030174836792e-05 5.3000000000000009e-04 0.0000000000000000e+00  1.3521299955430435e-05 5.3000000000000009e-04 0.0000000000000000e+00  1.4303231267706281e-05 5.3000000000000009e-04 0.0000000000000000e+00  1.5068958534345254e-05 5.3000000000000009e-04 0.0000000000000000e+00  1.5824192601977864e-05 5.3000000000000009e-04 0.0000000000000000e+00  1.6555885375927500e-05 5.3000000000000009e-04 0.0000000000000000e+00  1.7257729420397277e-05 5.3000000000000009e-04 0.0000000000000000e+00  1.7923584185334548e-05 5.3000000000000009e-04 0.0000000000000000e+00  1.8522767910524726e-05 5.3000000000000009e-04 0.0000000000000000e+00  1.9057909544439186e-05 5.3000000000000009e-04 0.0000000000000000e+00  1.9504095565241716e-05 5.3000000000000009e-04 0.0000000000000000e+00  1.9888842911714670e-05 5.3000000000000009e-04 0.0000000000000000e+00  2.0155945588926346e-05 5.3000000000000009e-04 0.0000000000000000e+00  2.0297462924476305e-05 5.3000000000000009e-04 0.0000000000000000e+00  2.0324399162330787e-05 5.3000000000000009e-04 0.0000000000000000e+00  2.0184448016999261e-05 5.3000000000000009e-04 0.0000000000000000e+00  1.9932567165603411e-05 5.3000000000000009e-04 0.0000000000000000e+00  1.9504343003292939e-05 5.3000000000000009e-04 0.0000000000000000e+00  1.8867762377984663e-05 5.3000000000000009e-04 0.0000000000000000e+00  1.8031692128116153e-05 5.3000000000000009e-04 0.0000000000000000e+00  1.7021095922742295e-05 5.3000000000000009e-04 0.0000000000000000e+00  1.5801383641514593e-05 5.3000000000000009e-04 0.0000000000000000e+00  1.4374956031805413e-05 5.3000000000000009e-04 0.0000000000000000e+00  1.2762232182412039e-05 5.3000000000000009e-04 0.0000000000000000e+00  1.0944602772672808e-05 5.3000000000000009e-04 0.0000000000000000e+00  9.0100976872098568e-06 5.3000000000000009e-04 0.0000000000000000e+00  6.8419209091680700e-06 5.3000000000000009e-04 0.0000000000000000e+00  4.5207858136025073e-06 5.3000000000000009e-04 0.0000000000000000e+00  2.0558531663491976e-06 5.3000000000000009e-04 0.0000000000000000e+00  -5.4680135440841095e-07 5.3000000000000009e-04 0.0000000000000000e+00  -3.2519411460126764e-06 5.3000000000000009e-04 0.0000000000000000e+00  -6.0782076937801059e-06 5.3000000000000009e-04 0.0000000000000000e+00  -8.9732542896880277e-06 5.3000000000000009e-04 0.0000000000000000e+00  -1.1955860223966252e-05 5.3000000000000009e-04 0.0000000000000000e+00  -1.4988290823614886e-05 5.3000000000000009e-04 0.0000000000000000e+00  -1.8063570058465232e-05 5.3000000000000009e-04 0.0000000000000000e+00  -2.1171010938044223e-05 5.3000000000000009e-04 0.0000000000000000e+00  -2.4312054962503831e-05 5.3000000000000009e-04 0.0000000000000000e+00  -2.7462555959774334e-05 5.3000000000000009e-04 0.0000000000000000e+00  -3.0626194542249553e-05 5.3000000000000009e-04 0.0000000000000000e+00  -3.3792485493824177e-05 5.3000000000000009e-04 0.0000000000000000e+00  -3.6959034602486935e-05 5.3000000000000009e-04 0.0000000000000000e+00  -4.0122800294897605e-05 5.3000000000000009e-04 0.0000000000000000e+00  -4.3281516138669356e-05 5.3000000000000009e-04 0.0000000000000000e+00  -4.6433891150523675e-05 5.3000000000000009e-04 0.0000000000000000e+00  -4.9578533550967099e-05 5.3000000000000009e-04 0.0000000000000000e+00  -5.2717787792391980e-05 5.3000000000000009e-04 0.0000000000000000e+00  -5.5850422876435843e-05 5.3000000000000009e-04 0.0000000000000000e+00  -5.8977668527106152e-05 5.3000000000000009e-04 0.0000000000000000e+00  -6.2099942046645867e-05 5.3000000000000009e-04 0.0000000000000000e+00  -6.5218203852546075e-05 5.3000000000000009e-04 0.0000000000000000e+00  -6.8336121878723142e-05 5.3000000000000009e-04 0.0000000000000000e+00  -7.1453891156947222e-05 5.3000000000000009e-04 0.0000000000000000e+00  -7.4574427380084415e-05 5.3000000000000009e-04 0.0000000000000000e+00  -7.7698480795242365e-05 5.3000000000000009e-04 0.0000000000000000e+00  -8.0826326825078490e-05 5.3000000000000009e-04 0.0000000000000000e+00  -8.3961931389780979e-05 5.3000000000000009e-04 0.0000000000000000e+00  -8.7106781209379523e-05 5.3000000000000009e-04 0.0000000000000000e+00  -9.0262970845734545e-05 5.3000000000000009e-04 0.0000000000000000e+00  -9.3430033439065636e-05 5.3000000000000009e-04 0.0000000000000000e+00  -9.6603643015877370e-05 5.3000000000000009e-04 0.0000000000000000e+00  -9.9794356914386162e-05 5.3000000000000009e-04 0.0000000000000000e+00  -1.0300067318785847e-04 5.3000000000000009e-04 0.0000000000000000e+00  -1.0622586887874274e-04 5.3000000000000009e-04 0.0000000000000000e+00  -1.0945677757900214e-04 5.3000000000000009e-04 0.0000000000000000e+00  -1.1271022311527423e-04 5.3000000000000009e-04 0.0000000000000000e+00  -1.1598457799864682e-04 5.3000000000000009e-04 0.0000000000000000e+00  -1.1926793647976171e-04 5.3000000000000009e-04 0.0000000000000000e+00  -1.2257226341660200e-04 5.3000000000000009e-04 0.0000000000000000e+00  -1.2589471875351432e-04 5.3000000000000009e-04 0.0000000000000000e+00  -1.2923616151504723e-04 5.3000000000000009e-04 0.0000000000000000e+00  -1.3259187011436185e-04 5.3000000000000009e-04 0.0000000000000000e+00  -1.3595977230631209e-04 5.3000000000000009e-04 0.0000000000000000e+00  -1.3934373943398458e-04 5.3000000000000009e-04 0.0000000000000000e+00  -1.4274509941847224e-04 5.3000000000000009e-04 0.0000000000000000e+00  -1.4615705517591422e-04 5.3000000000000009e-04 0.0000000000000000e+00  -1.4957938987038161e-04 5.3000000000000009e-04 0.0000000000000000e+00  -1.5301207245623920e-04 5.3000000000000009e-04 0.0000000000000000e+00  -1.5645558833186126e-04 5.3000000000000009e-04 0.0000000000000000e+00  -1.5990105966953860e-04 5.3000000000000009e-04 0.0000000000000000e+00  -1.6335598534063670e-04 5.3000000000000009e-04 0.0000000000000000e+00  -1.6680623363326465e-04 5.3000000000000009e-04 0.0000000000000000e+00  -1.7026258402988532e-04 5.3000000000000009e-04 0.0000000000000000e+00  -1.7371791339237041e-04 5.3000000000000009e-04 0.0000000000000000e+00  -1.7716309205650547e-04 5.3000000000000009e-04 0.0000000000000000e+00  -1.8060294835331526e-04 5.3000000000000009e-04 0.0000000000000000e+00  -1.8403462852615489e-04 5.3000000000000009e-04 0.0000000000000000e+00  -1.8745275055680945e-04 5.3000000000000009e-04 0.0000000000000000e+00  -1.9085237115294533e-04 5.3000000000000009e-04 0.0000000000000000e+00  -1.9424444517701661e-04 5.3000000000000009e-04 0.0000000000000000e+00  -1.9761015069492778e-04 5.3000000000000009e-04 0.0000000000000000e+00  -2.0095137194751524e-04 5.3000000000000009e-04 0.0000000000000000e+00  -2.0426603553132122e-04 5.3000000000000009e-04 0.0000000000000000e+00  -2.0754742102016620e-04 5.3000000000000009e-04 0.0000000000000000e+00  -2.1080041971501296e-04 5.3000000000000009e-04 0.0000000000000000e+00  -2.1402479123408202e-04 5.3000000000000009e-04 0.0000000000000000e+00  -2.1719595263133289e-04 5.3000000000000009e-04 0.0000000000000000e+00  -2.2034281074532645e-04 5.3000000000000009e-04 0.0000000000000000e+00  -2.2339667112194605e-04 5.2073986545919247e-04 0.0000000000000000e+00  -2.2319578266513984e-04 5.1147722654317873e-04 0.0000000000000000e+00  -2.2291241120482778e-04 5.0221183570550916e-04 0.0000000000000000e+00  -2.2247420820949580e-04 4.9294319120862199e-04 0.0000000000000000e+00  -2.2192610936199979e-04 4.8368611223096312e-04 0.0000000000000000e+00  -2.2122882742118364e-04 4.7440095620562958e-04 0.0000000000000000e+00  -2.2042290950665720e-04 4.6513325511770052e-04 0.0000000000000000e+00  -2.1949520254487242e-04 4.5584255939828499e-04 0.0000000000000000e+00  -2.1842764205621802e-04 4.4654868148227286e-04 0.0000000000000000e+00  -2.1722858261837369e-04 4.3726408424863100e-04 0.0000000000000000e+00  -2.1590183133769837e-04 4.2794860774315375e-04 0.0000000000000000e+00  -2.1443888338640874e-04 4.1863205641991513e-04 0.0000000000000000e+00  -2.1284658223737346e-04 4.0929279465270541e-04 0.0000000000000000e+00  -2.1110733063139960e-04 3.9996667127827914e-04 0.0000000000000000e+00  -2.0923760344423629e-04 3.9059556611927920e-04 0.0000000000000000e+00  -2.0721921610865506e-04 3.8120173635875995e-04 0.0000000000000000e+00  -2.0505247258257176e-04 3.7181322775195410e-04 0.0000000000000000e+00  -2.0274050624543023e-04 3.6237979280165692e-04 0.0000000000000000e+00  -2.0026944514635957e-04 3.5294729926653169e-04 0.0000000000000000e+00  -1.9764357599053075e-04 3.4347763804514473e-04 0.0000000000000000e+00  -1.9486594450954559e-04 3.3395110755095526e-04 0.0000000000000000e+00  -1.9191197896487581e-04 3.2443448464006627e-04 0.0000000000000000e+00  -1.8879723244863623e-04 3.1484709454293635e-04 0.0000000000000000e+00  -1.8549362702850660e-04 3.0524219852221592e-04 0.0000000000000000e+00  -1.8203031150772794e-04 2.9557017624691224e-04 0.0000000000000000e+00  -1.7836121733882284e-04 2.8588361906793549e-04 0.0000000000000000e+00  -1.7452460883955628e-04 2.7609385598441111e-04 0.0000000000000000e+0