<?xml version="1.0"?>
<VTKFile type="UnstructuredGrid"  version="0.1"  >
<UnstructuredGrid>
<Piece  NumberOfPoints="16512" NumberOfCells="32424">
<Points>
<DataArray  type="Float64"  NumberOfComponents="3"  format="ascii">-25 4.9 0  25 4.9 0  25 -4.9 0  -25 -4.9 0  -10 0 0  10 0 0  -24.80000000000034 4.9 0  -24.60000000000068 4.9 0  -24.40000000000101 4.9 0  -24.20000000000135 4.9 0  -24.00000000000169 4.9 0  -23.80000000000203 4.9 0  -23.60000000000237 4.9 0  -23.40000000000271 4.9 0  -23.20000000000304 4.9 0  -23.00000000000338 4.9 0  -22.80000000000372 4.9 0  -22.60000000000406 4.9 0  -22.40000000000439 4.9 0  -22.20000000000473 4.9 0  -22.00000000000507 4.9 0  -21.80000000000541 4.9 0  -21.60000000000575 4.9 0  -21.40000000000608 4.9 0  -21.20000000000642 4.9 0  -21.00000000000676 4.9 0  -20.8000000000071 4.9 0  -20.60000000000744 4.9 0  -20.40000000000777 4.9 0  -20.20000000000811 4.9 0  -20.00000000000845 4.9 0  -19.80000000000879 4.9 0  -19.60000000000912 4.9 0  -19.40000000000946 4.9 0  -19.2000000000098 4.9 0  -19.00000000001039 4.9 0  -18.80000000001108 4.9 0  -18.60000000001231 4.9 0  -18.40000000001371 4.9 0  -18.2000000000154 4.9 0  -18.00000000001716 4.9 0  -17.80000000001892 4.9 0  -17.60000000002067 4.9 0  -17.40000000002243 4.9 0  -17.20000000002419 4.9 0  -17.00000000002595 4.9 0  -16.80000000002771 4.9 0  -16.60000000002947 4.9 0  -16.40000000003123 4.9 0  -16.20000000003299 4.9 0  -16.00000000003472 4.9 0  -15.80000000003612 4.9 0  -15.60000000003748 4.9 0  -15.40000000003853 4.9 0  -15.20000000003958 4.9 0  -15.00000000004063 4.9 0  -14.80000000004168 4.9 0  -14.60000000004273 4.9 0  -14.40000000004377 4.9 0  -14.20000000004482 4.9 0  -14.00000000004587 4.9 0  -13.80000000004692 4.9 0  -13.60000000004797 4.9 0  -13.40000000004902 4.9 0  -13.20000000005007 4.9 0  -13.00000000005111 4.9 0  -12.80000000005216 4.9 0  -12.60000000005321 4.9 0  -12.40000000005426 4.9 0  -12.20000000005531 4.9 0  -12.00000000005636 4.9 0  -11.80000000005741 4.9 0  -11.60000000005846 4.9 0  -11.4000000000595 4.9 0  -11.20000000006055 4.9 0  -11.0000000000616 4.9 0  -10.80000000006265 4.9 0  -10.6000000000637 4.9 0  -10.40000000006475 4.9 0  -10.2000000000658 4.9 0  -10.00000000006684 4.9 0  -9.800000000067891 4.9 0  -9.60000000006894 4.9 0  -9.400000000069989 4.9 0  -9.200000000070727 4.9 0  -9.00000000007142 4.9 0  -8.800000000071787 4.9 0  -8.600000000072125 4.9 0  -8.400000000072467 4.9 0  -8.200000000072805 4.9 0  -8.000000000073143 4.9 0  -7.800000000073481 4.9 0  -7.60000000007382 4.9 0  -7.400000000074154 4.9 0  -7.200000000074493 4.9 0  -7.000000000074831 4.9 0  -6.800000000075173 4.9 0  -6.600000000075511 4.9 0  -6.400000000075849 4.9 0  -6.200000000076187 4.9 0  -6.000000000076525 4.9 0  -5.800000000076867 4.9 0  -5.600000000077205 4.9 0  -5.400000000077544 4.9 0  -5.200000000077882 4.9 0  -5.00000000007822 4.9 0  -4.800000000078558 4.9 0  -4.600000000078897 4.9 0  -4.400000000079235 4.9 0  -4.200000000079573 4.9 0  -4.000000000079908 4.9 0  -3.800000000080246 4.9 0  -3.600000000080588 4.9 0  -3.400000000080926 4.9 0  -3.200000000081264 4.9 0  -3.000000000081606 4.9 0  -2.800000000081944 4.9 0  -2.600000000082282 4.9 0  -2.40000000008262 4.9 0  -2.200000000082959 4.9 0  -2.000000000083297 4.9 0  -1.800000000083635 4.9 0  -1.600000000083973 4.9 0  -1.400000000084312 4.9 0  -1.20000000008465 4.9 0  -1.000000000084988 4.9 0  -0.8000000000853262 4.9 0  -0.6000000000856645 4.9 0  -0.4000000000860027 4.9 0  -0.2000000000863409 4.9 0  -8.667910833537462e-11 4.9 0  0.1999999999129827 4.9 0  0.3999999999126409 4.9 0  0.5999999999123027 4.9 0  0.7999999999119716 4.9 0  0.9999999999116262 4.9 0  1.199999999911295 4.9 0  1.39999999991095 4.9 0  1.599999999910619 4.9 0  1.799999999910273 4.9 0  1.999999999909939 4.9 0  2.199999999909597 4.9 0  2.399999999909262 4.9 0  2.599999999908921 4.9 0  2.799999999908582 4.9 0  2.999999999908244 4.9 0  3.199999999907906 4.9 0  3.399999999907564 4.9 0  3.599999999907226 4.9 0  3.799999999906888 4.9 0  3.999999999906549 4.9 0  4.199999999906218 4.9 0  4.399999999905873 4.9 0  4.599999999905542 4.9 0  4.799999999905197 4.9 0  4.999999999904865 4.9 0  5.19999999990452 4.9 0  5.399999999904182 4.9 0  5.599999999903844 4.9 0  5.799999999903505 4.9 0  5.999999999903167 4.9 0  6.199999999902829 4.9 0  6.399999999902491 4.9 0  6.599999999902153 4.9 0  6.799999999902379 4.9 0  6.999999999902752 4.9 0  7.199999999903724 4.9 0  7.399999999904807 4.9 0  7.59999999990589 4.9 0  7.799999999906966 4.9 0  7.999999999908056 4.9 0  8.199999999909132 4.9 0  8.399999999910214 4.9 0  8.59999999991129 4.9 0  8.79999999991238 4.9 0  8.999999999913456 4.9 0  9.199999999914539 4.9 0  9.399999999915622 4.9 0  9.599999999916704 4.9 0  9.79999999991778 4.9 0  9.99999999991887 4.9 0  10.19999999991995 4.9 0  10.39999999992103 4.9 0  10.59999999992212 4.9 0  10.79999999992319 4.9 0  10.99999999992428 4.9 0  11.19999999992536 4.9 0  11.39999999992644 4.9 0  11.59999999992752 4.9 0  11.7999999999286 4.9 0  11.99999999992968 4.9 0  12.19999999993077 4.9 0  12.39999999993184 4.9 0  12.59999999993293 4.9 0  12.79999999993401 4.9 0  12.99999999993509 4.9 0  13.19999999993617 4.9 0  13.39999999993726 4.9 0  13.59999999993834 4.9 0  13.79999999993942 4.9 0  13.99999999994051 4.9 0  14.19999999994158 4.9 0  14.39999999994266 4.9 0  14.59999999994375 4.9 0  14.79999999994483 4.9 0  14.99999999994591 4.9 0  15.199999999947 4.9 0  15.39999999994807 4.9 0  15.59999999994915 4.9 0  15.79999999995024 4.9 0  15.99999999995132 4.9 0  16.1999999999524 4.9 0  16.39999999995349 4.9 0  16.59999999995456 4.9 0  16.79999999995565 4.9 0  16.99999999995674 4.9 0  17.19999999995781 4.9 0  17.39999999995889 4.9 0  17.59999999995997 4.9 0  17.79999999996106 4.9 0  17.99999999996214 4.9 0  18.19999999996322 4.9 0  18.3999999999643 4.9 0  18.59999999996538 4.9 0  18.79999999996646 4.9 0  18.99999999996755 4.9 0  19.19999999996863 4.9 0  19.39999999996971 4.9 0  19.59999999997079 4.9 0  19.79999999997187 4.9 0  19.99999999997296 4.9 0  20.19999999997404 4.9 0  20.39999999997512 4.9 0  20.5999999999762 4.9 0  20.79999999997728 4.9 0  20.99999999997836 4.9 0  21.19999999997945 4.9 0  21.39999999998052 4.9 0  21.59999999998161 4.9 0  21.79999999998269 4.9 0  21.99999999998377 4.9 0  22.19999999998485 4.9 0  22.39999999998594 4.9 0  22.59999999998701 4.9 0  22.7999999999881 4.9 0  22.99999999998919 4.9 0  23.19999999999026 4.9 0  23.39999999999135 4.9 0  23.59999999999243 4.9 0  23.79999999999351 4.9 0  23.99999999999459 4.9 0  24.19999999999568 4.9 0  24.39999999999675 4.9 0  24.59999999999783 4.9 0  24.79999999999892 4.9 0  25 4.700000000000415 0  25 4.500000000000868 0  25 4.300000000001562 0  25 4.100000000001831 0  25 3.900000000002072 0  25 3.700000000002459 0  25 3.500000000003038 0  25 3.300000000003653 0  25 3.100000000004294 0  25 2.900000000004838 0  25 2.700000000005293 0  25 2.500000000005957 0  25 2.300000000006508 0  25 2.100000000007153 0  25 1.900000000007722 0  25 1.700000000008417 0  25 1.500000000008938 0  25 1.30000000000963 0  25 1.100000000010154 0  25 0.9000000000108268 0  25 0.7000000000114559 0  25 0.5000000000119762 0  25 0.3000000000126564 0  25 0.1000000000131926 0  25 -0.09999999998679243 0  25 -0.2999999999874587 0  25 -0.4999999999878586 0  25 -0.6999999999884441 0  25 -0.899999999988804 0  25 -1.099999999989427 0  25 -1.299999999989749 0  25 -1.499999999990411 0  25 -1.69999999999073 0  25 -1.899999999991396 0  25 -2.099999999991715 0  25 -2.299999999992381 0  25 -2.499999999993047 0  25 -2.699999999993714 0  25 -2.899999999994227 0  25 -3.099999999994698 0  25 -3.299999999994673 0  25 -3.499999999995339 0  25 -3.699999999996004 0  25 -3.89999999999667 0  25 -4.099999999997335 0  25 -4.299999999998002 0  25 -4.499999999998668 0  25 -4.699999999999335 0  24.80000000000034 -4.9 0  24.60000000000068 -4.9 0  24.40000000000101 -4.9 0  24.20000000000135 -4.9 0  24.00000000000169 -4.9 0  23.80000000000203 -4.9 0  23.60000000000237 -4.9 0  23.40000000000271 -4.9 0  23.20000000000304 -4.9 0  23.00000000000338 -4.9 0  22.80000000000372 -4.9 0  22.60000000000406 -4.9 0  22.40000000000439 -4.9 0  22.20000000000473 -4.9 0  22.00000000000507 -4.9 0  21.80000000000541 -4.9 0  21.60000000000575 -4.9 0  21.40000000000608 -4.9 0  21.20000000000642 -4.9 0  21.00000000000676 -4.9 0  20.8000000000071 -4.9 0  20.60000000000744 -4.9 0  20.40000000000777 -4.9 0  20.20000000000811 -4.9 0  20.00000000000845 -4.9 0  19.80000000000879 -4.9 0  19.60000000000912 -4.9 0  19.40000000000946 -4.9 0  19.2000000000098 -4.9 0  19.00000000001039 -4.9 0  18.80000000001108 -4.9 0  18.60000000001231 -4.9 0  18.40000000001371 -4.9 0  18.2000000000154 -4.9 0  18.00000000001716 -4.9 0  17.80000000001892 -4.9 0  17.60000000002067 -4.9 0  17.40000000002243 -4.9 0  17.20000000002419 -4.9 0  17.00000000002595 -4.9 0  16.80000000002771 -4.9 0  16.60000000002947 -4.9 0  16.40000000003123 -4.9 0  16.20000000003299 -4.9 0  16.00000000003472 -4.9 0  15.80000000003612 -4.9 0  15.60000000003748 -4.9 0  15.40000000003853 -4.9 0  15.20000000003958 -4.9 0  15.00000000004063 -4.9 0  14.80000000004168 -4.9 0  14.60000000004273 -4.9 0  14.40000000004377 -4.9 0  14.20000000004482 -4.9 0  14.00000000004587 -4.9 0  13.80000000004692 -4.9 0  13.60000000004797 -4.9 0  13.40000000004902 -4.9 0  13.20000000005007 -4.9 0  13.00000000005111 -4.9 0  12.80000000005216 -4.9 0  12.60000000005321 -4.9 0  12.40000000005426 -4.9 0  12.20000000005531 -4.9 0  12.00000000005636 -4.9 0  11.80000000005741 -4.9 0  11.60000000005846 -4.9 0  11.4000000000595 -4.9 0  11.20000000006055 -4.9 0  11.0000000000616 -4.9 0  10.80000000006265 -4.9 0  10.6000000000637 -4.9 0  10.40000000006475 -4.9 0  10.2000000000658 -4.9 0  10.00000000006684 -4.9 0  9.800000000067891 -4.9 0  9.60000000006894 -4.9 0  9.400000000069989 -4.9 0  9.200000000070727 -4.9 0  9.00000000007142 -4.9 0  8.800000000071787 -4.9 0  8.600000000072125 -4.9 0  8.400000000072467 -4.9 0  8.200000000072805 -4.9 0  8.000000000073143 -4.9 
[...]
<PointData  Vectors="f_7"> 
<DataArray  type="Float64"  Name="f_7"  NumberOfComponents="3" format="ascii">3.8027551327250042e-04 9.8999999999999999e-04 0.0000000000000000e+00  -3.8019859318482005e-04 9.8999999999999999e-04 0.0000000000000000e+00  0.0000000000000000e+00 0.0000000000000000e+00 0.0000000000000000e+00  0.0000000000000000e+00 0.0000000000000000e+00 0.0000000000000000e+00  5.0258507800656964e-05 4.7465720589066071e-04 0.0000000000000000e+00  -5.1842534797879161e-05 4.5043098830926557e-04 0.0000000000000000e+00  3.7427821126761107e-04 9.8999999999999999e-04 0.0000000000000000e+00  3.6824466170734999e-04 9.8999999999999999e-04 0.0000000000000000e+00  3.6217994556775855e-04 9.8999999999999999e-04 0.0000000000000000e+00  3.5601077623682344e-04 9.8999999999999999e-04 0.0000000000000000e+00  3.4981431294784000e-04 9.8999999999999999e-04 0.0000000000000000e+00  3.4353941968895592e-04 9.8999999999999999e-04 0.0000000000000000e+00  3.3722781190417101e-04 9.8999999999999999e-04 0.0000000000000000e+00  3.3084866504057677e-04 9.8999999999999999e-04 0.0000000000000000e+00  3.2445070144781417e-04 9.8999999999999999e-04 0.0000000000000000e+00  3.1799348222547448e-04 9.8999999999999999e-04 0.0000000000000000e+00  3.1150016223982724e-04 9.8999999999999999e-04 0.0000000000000000e+00  3.0499778084003157e-04 9.8999999999999999e-04 0.0000000000000000e+00  2.9842604176501275e-04 9.8999999999999999e-04 0.0000000000000000e+00  2.9185062270992742e-04 9.8999999999999999e-04 0.0000000000000000e+00  2.8526119230131602e-04 9.8999999999999999e-04 0.0000000000000000e+00  2.7866068137456871e-04 9.8999999999999999e-04 0.0000000000000000e+00  2.7201078702080589e-04 9.8999999999999999e-04 0.0000000000000000e+00  2.6536812748153990e-04 9.8999999999999999e-04 0.0000000000000000e+00  2.5873187810840099e-04 9.8999999999999999e-04 0.0000000000000000e+00  2.5206267940441538e-04 9.8999999999999999e-04 0.0000000000000000e+00  2.4540036280042826e-04 9.8999999999999999e-04 0.0000000000000000e+00  2.3874060990340253e-04 9.8999999999999999e-04 0.0000000000000000e+00  2.3209090654556611e-04 9.8999999999999999e-04 0.0000000000000000e+00  2.2545488855009980e-04 9.8999999999999999e-04 0.0000000000000000e+00  2.1879203896103691e-04 9.8999999999999999e-04 0.0000000000000000e+00  2.1214680636456973e-04 9.8999999999999999e-04 0.0000000000000000e+00  2.0551769436320401e-04 9.8999999999999999e-04 0.0000000000000000e+00  1.9889172351051032e-04 9.8999999999999999e-04 0.0000000000000000e+00  1.9227579656428927e-04 9.8999999999999999e-04 0.0000000000000000e+00  1.8567103408652483e-04 9.8999999999999999e-04 0.0000000000000000e+00  1.7906828408384396e-04 9.8999999999999999e-04 0.0000000000000000e+00  1.7247423300189045e-04 9.8999999999999999e-04 0.0000000000000000e+00  1.6589020479423184e-04 9.8999999999999999e-04 0.0000000000000000e+00  1.5931592084987667e-04 9.8999999999999999e-04 0.0000000000000000e+00  1.5272914457566456e-04 9.8999999999999999e-04 0.0000000000000000e+00  1.4615097782456332e-04 9.8999999999999999e-04 0.0000000000000000e+00  1.3956800864135707e-04 9.8999999999999999e-04 0.0000000000000000e+00  1.3298333709397381e-04 9.8999999999999999e-04 0.0000000000000000e+00  1.2638570168202890e-04 9.8999999999999999e-04 0.0000000000000000e+00  1.1977953009196161e-04 9.8999999999999999e-04 0.0000000000000000e+00  1.1316026766190171e-04 9.8999999999999999e-04 0.0000000000000000e+00  1.0652077577899793e-04 9.8999999999999999e-04 0.0000000000000000e+00  9.9856785822682222e-05 9.8999999999999999e-04 0.0000000000000000e+00  9.3165633465619647e-05 9.8999999999999999e-04 0.0000000000000000e+00  8.6441388533938795e-05 9.8999999999999999e-04 0.0000000000000000e+00  7.9680427342157669e-05 9.8999999999999999e-04 0.0000000000000000e+00  7.2881872171407072e-05 9.8999999999999999e-04 0.0000000000000000e+00  6.6033556939018540e-05 9.8999999999999999e-04 0.0000000000000000e+00  5.9132457726714410e-05 9.8999999999999999e-04 0.0000000000000000e+00  5.2184643706369112e-05 9.8999999999999999e-04 0.0000000000000000e+00  4.5176465656824090e-05 9.8999999999999999e-04 0.0000000000000000e+00  3.8111927088673390e-05 9.8999999999999999e-04 0.0000000000000000e+00  3.0988272831168846e-05 9.8999999999999999e-04 0.0000000000000000e+00  2.3782340690233549e-05 9.8999999999999999e-04 0.0000000000000000e+00  1.6548895303144963e-05 9.8999999999999999e-04 0.0000000000000000e+00  9.2505119207096779e-06 9.8999999999999999e-04 0.0000000000000000e+00  1.9005189673827765e-06 9.8999999999999999e-04 0.0000000000000000e+00  -5.5010734940019951e-06 9.8999999999999999e-04 0.0000000000000000e+00  -1.2926053582721952e-05 9.8999999999999999e-04 0.0000000000000000e+00  -2.0385032265898194e-05 9.8999999999999999e-04 0.0000000000000000e+00  -2.7798196223328700e-05 9.8999999999999999e-04 0.0000000000000000e+00  -3.5200232905712676e-05 9.8999999999999999e-04 0.0000000000000000e+00  -4.2552123141033606e-05 9.8999999999999999e-04 0.0000000000000000e+00  -4.9839395184813748e-05 9.8999999999999999e-04 0.0000000000000000e+00  -5.7023205914938054e-05 9.8999999999999999e-04 0.0000000000000000e+00  -6.4006953309917399e-05 9.8999999999999999e-04 0.0000000000000000e+00  -7.0786645101315936e-05 9.8999999999999999e-04 0.0000000000000000e+00  -7.7255003877686453e-05 9.8999999999999999e-04 0.0000000000000000e+00  -8.3484614234217853e-05 9.8999999999999999e-04 0.0000000000000000e+00  -8.9451106605080349e-05 9.8999999999999999e-04 0.0000000000000000e+00  -9.4978457098035784e-05 9.8999999999999999e-04 0.0000000000000000e+00  -9.9987004462502582e-05 9.8999999999999999e-04 0.0000000000000000e+00  -1.0453311162711274e-04 9.8999999999999999e-04 0.0000000000000000e+00  -1.0867132868802962e-04 9.8999999999999999e-04 0.0000000000000000e+00  -1.1214261227197627e-04 9.8999999999999999e-04 0.0000000000000000e+00  -1.1514564401368726e-04 9.8999999999999999e-04 0.0000000000000000e+00  -1.1756078128887479e-04 9.8999999999999999e-04 0.0000000000000000e+00  -1.1934429989345302e-04 9.8999999999999999e-04 0.0000000000000000e+00  -1.2058805017425615e-04 9.8999999999999999e-04 0.0000000000000000e+00  -1.2131834000692037e-04 9.8999999999999999e-04 0.0000000000000000e+00  -1.2150416932281242e-04 9.8999999999999999e-04 0.0000000000000000e+00  -1.2116870194387372e-04 9.8999999999999999e-04 0.0000000000000000e+00  -1.2034087906516401e-04 9.8999999999999999e-04 0.0000000000000000e+00  -1.1906909368475063e-04 9.8999999999999999e-04 0.0000000000000000e+00  -1.1745166932840875e-04 9.8999999999999999e-04 0.0000000000000000e+00  -1.1550676121274719e-04 9.8999999999999999e-04 0.0000000000000000e+00  -1.1320605569628909e-04 9.8999999999999999e-04 0.0000000000000000e+00  -1.1061044114092261e-04 9.8999999999999999e-04 0.0000000000000000e+00  -1.0783788829416128e-04 9.8999999999999999e-04 0.0000000000000000e+00  -1.0488101196874375e-04 9.8999999999999999e-04 0.0000000000000000e+00  -1.0177502469340807e-04 9.8999999999999999e-04 0.0000000000000000e+00  -9.8497011327274299e-05 9.8999999999999999e-04 0.0000000000000000e+00  -9.5148856242468439e-05 9.8999999999999999e-04 0.0000000000000000e+00  -9.1734012674185092e-05 9.8999999999999999e-04 0.0000000000000000e+00  -8.8287064833544922e-05 9.8999999999999999e-04 0.0000000000000000e+00  -8.4782770107881642e-05 9.8999999999999999e-04 0.0000000000000000e+00  -8.1289399648113567e-05 9.8999999999999999e-04 0.0000000000000000e+00  -7.7808565763757835e-05 9.8999999999999999e-04 0.0000000000000000e+00  -7.4341632290229342e-05 9.8999999999999999e-04 0.0000000000000000e+00  -7.0902266043536627e-05 9.8999999999999999e-04 0.0000000000000000e+00  -6.7506666351816079e-05 9.8999999999999999e-04 0.0000000000000000e+00  -6.4162346581110761e-05 9.8999999999999999e-04 0.0000000000000000e+00  -6.0840615764750584e-05 9.8999999999999999e-04 0.0000000000000000e+00  -5.7584883868050679e-05 9.8999999999999999e-04 0.0000000000000000e+00  -5.4386478221868068e-05 9.8999999999999999e-04 0.0000000000000000e+00  -5.1248855254703790e-05 9.8999999999999999e-04 0.0000000000000000e+00  -4.8172156850527059e-05 9.8999999999999999e-04 0.0000000000000000e+00  -4.5144706704465760e-05 9.8999999999999999e-04 0.0000000000000000e+00  -4.2175242920057403e-05 9.8999999999999999e-04 0.0000000000000000e+00  -3.9264357391508080e-05 9.8999999999999999e-04 0.0000000000000000e+00  -3.6406190540756137e-05 9.8999999999999999e-04 0.0000000000000000e+00  -3.3600847940777479e-05 9.8999999999999999e-04 0.0000000000000000e+00  -3.0833141247963854e-05 9.8999999999999999e-04 0.0000000000000000e+00  -2.8115128476934506e-05 9.8999999999999999e-04 0.0000000000000000e+00  -2.5435603784746385e-05 9.8999999999999999e-04 0.0000000000000000e+00  -2.2796766883012429e-05 9.8999999999999999e-04 0.0000000000000000e+00  -2.0189742521996250e-05 9.8999999999999999e-04 0.0000000000000000e+00  -1.7615611283718251e-05 9.8999999999999999e-04 0.0000000000000000e+00  -1.5068837525487728e-05 9.8999999999999999e-04 0.0000000000000000e+00  -1.2545697291380260e-05 9.8999999999999999e-04 0.0000000000000000e+00  -1.0043578261749294e-05 9.8999999999999999e-04 0.0000000000000000e+00  -7.5583815265689999e-06 9.8999999999999999e-04 0.0000000000000000e+00  -5.0858926699049533e-06 9.8999999999999999e-04 0.0000000000000000e+00  -2.6215753936678241e-06 9.8999999999999999e-04 0.0000000000000000e+00  -1.6387273405298010e-07 9.8999999999999999e-04 0.0000000000000000e+00  2.2907068423276188e-06 9.8999999999999999e-04 0.0000000000000000e+00  4.7481806980804247e-06 9.8999999999999999e-04 0.0000000000000000e+00  7.2101226338437567e-06 9.8999999999999999e-04 0.0000000000000000e+00  9.6812056141104692e-06 9.8999999999999999e-04 0.0000000000000000e+00  1.2164395148595787e-05 9.8999999999999999e-04 0.0000000000000000e+00  1.4664866271052640e-05 9.8999999999999999e-04 0.0000000000000000e+00  1.7186668502878286e-05 9.8999999999999999e-04 0.0000000000000000e+00  1.9735595645480815e-05 9.8999999999999999e-04 0.0000000000000000e+00  2.2313736513751864e-05 9.8999999999999999e-04 0.0000000000000000e+00  2.4920819797305485e-05 9.8999999999999999e-04 0.0000000000000000e+00  2.7565168201687490e-05 9.8999999999999999e-04 0.0000000000000000e+00  3.0250843418520497e-05 9.8999999999999999e-04 0.0000000000000000e+00  3.2980700742179736e-05 9.8999999999999999e-04 0.0000000000000000e+00  3.5757374817917707e-05 9.8999999999999999e-04 0.0000000000000000e+00  3.8586235385772932e-05 9.8999999999999999e-04 0.0000000000000000e+00  4.1464468138365957e-05 9.8999999999999999e-04 0.0000000000000000e+00  4.4403145415701427e-05 9.8999999999999999e-04 0.0000000000000000e+00  4.7400826461128050e-05 9.8999999999999999e-04 0.0000000000000000e+00  5.0445882947750655e-05 9.8999999999999999e-04 0.0000000000000000e+00  5.3557630324077386e-05 9.8999999999999999e-04 0.0000000000000000e+00  5.6729204386576103e-05 9.8999999999999999e-04 0.0000000000000000e+00  5.9958018851126732e-05 9.8999999999999999e-04 0.0000000000000000e+00  6.3244327324223166e-05 9.8999999999999999e-04 0.0000000000000000e+00  6.6579738277991056e-05 9.8999999999999999e-04 0.0000000000000000e+00  6.9992486613300073e-05 9.8999999999999999e-04 0.0000000000000000e+00  7.3414267361702356e-05 9.8999999999999999e-04 0.0000000000000000e+00  7.6881654601158961e-05 9.8999999999999999e-04 0.0000000000000000e+00  8.0382746506544803e-05 9.8999999999999999e-04 0.0000000000000000e+00  8.3908378754350159e-05 9.8999999999999999e-04 0.0000000000000000e+00  8.7413604276719237e-05 9.8999999999999999e-04 0.0000000000000000e+00  9.0913521614197380e-05 9.8999999999999999e-04 0.0000000000000000e+00  9.4373568705464597e-05 9.8999999999999999e-04 0.0000000000000000e+00  9.7779969942256680e-05 9.8999999999999999e-04 0.0000000000000000e+00  1.0111707690124796e-04 9.8999999999999999e-04 0.0000000000000000e+00  1.0429551739322701e-04 9.8999999999999999e-04 0.0000000000000000e+00  1.0732754708114378e-04 9.8999999999999999e-04 0.0000000000000000e+00  1.1013986577641749e-04 9.8999999999999999e-04 0.0000000000000000e+00  1.1280483939631325e-04 9.8999999999999999e-04 0.0000000000000000e+00  1.1516582201980292e-04 9.8999999999999999e-04 0.0000000000000000e+00  1.1719579671752020e-04 9.8999999999999999e-04 0.0000000000000000e+00  1.1892083478716524e-04 9.8999999999999999e-04 0.0000000000000000e+00  1.2018952524488151e-04 9.8999999999999999e-04 0.0000000000000000e+00  1.2115477017411571e-04 9.8999999999999999e-04 0.0000000000000000e+00  1.2162727479936721e-04 9.8999999999999999e-04 0.0000000000000000e+00  1.2151124755086624e-04 9.8999999999999999e-04 0.0000000000000000e+00  1.2081773567085498e-04 9.8999999999999999e-04 0.0000000000000000e+00  1.1962451247376251e-04 9.8999999999999999e-04 0.0000000000000000e+00  1.1782300214948160e-04 9.8999999999999999e-04 0.0000000000000000e+00  1.1541578258409668e-04 9.8999999999999999e-04 0.0000000000000000e+00  1.1246281593946657e-04 9.8999999999999999e-04 0.0000000000000000e+00  1.0889824501637896e-04 9.8999999999999999e-04 0.0000000000000000e+00  1.0499530475489231e-04 9.8999999999999999e-04 0.0000000000000000e+00  1.0038511800705546e-04 9.8999999999999999e-04 0.0000000000000000e+00  9.5320169736495410e-05 9.8999999999999999e-04 0.0000000000000000e+00  8.9825442713866612e-05 9.8999999999999999e-04 0.0000000000000000e+00  8.3919220255638090e-05 9.8999999999999999e-04 0.0000000000000000e+00  7.7711966318873459e-05 9.8999999999999999e-04 0.0000000000000000e+00  7.1137947751263910e-05 9.8999999999999999e-04 0.0000000000000000e+00  6.4368406488120661e-05 9.8999999999999999e-04 0.0000000000000000e+00  5.7341315611215899e-05 9.8999999999999999e-04 0.0000000000000000e+00  5.0176870989314467e-05 9.8999999999999999e-04 0.0000000000000000e+00  4.2898109957394001e-05 9.8999999999999999e-04 0.0000000000000000e+00  3.5542903622139503e-05 9.8999999999999999e-04 0.0000000000000000e+00  2.8100688875771417e-05 9.8999999999999999e-04 0.0000000000000000e+00  2.0657012943086563e-05 9.8999999999999999e-04 0.0000000000000000e+00  1.3198452937667129e-05 9.8999999999999999e-04 0.0000000000000000e+00  5.7609088181373987e-06 9.8999999999999999e-04 0.0000000000000000e+00  -1.6462112987533307e-06 9.8999999999999999e-04 0.0000000000000000e+00  -9.0105803285367821e-06 9.8999999999999999e-04 0.0000000000000000e+00  -1.6325464611952447e-05 9.8999999999999999e-04 0.0000000000000000e+00  -2.3582659627634787e-05 9.8999999999999999e-04 0.0000000000000000e+00  -3.0775215537380183e-05 9.8999999999999999e-04 0.0000000000000000e+00  -3.7921073645993253e-05 9.8999999999999999e-04 0.0000000000000000e+00  -4.4996333779210292e-05 9.8999999999999999e-04 0.0000000000000000e+00  -5.2005868160240963e-05 9.8999999999999999e-04 0.0000000000000000e+00  -5.8970709875816427e-05 9.8999999999999999e-04 0.0000000000000000e+00  -6.5872419387640537e-05 9.8999999999999999e-04 0.0000000000000000e+00  -7.2728253731013019e-05 9.8999999999999999e-04 0.0000000000000000e+00  -7.9536912301165634e-05 9.8999999999999999e-04 0.0000000000000000e+00  -8.6304419154484619e-05 9.8999999999999999e-04 0.0000000000000000e+00  -9.3034357557361720e-05 9.8999999999999999e-04 0.0000000000000000e+00  -9.9727432050651755e-05 9.8999999999999999e-04 0.0000000000000000e+00  -1.0639533366510001e-04 9.8999999999999999e-04 0.0000000000000000e+00  -1.1304032766435980e-04 9.8999999999999999e-04 0.0000000000000000e+00  -1.1966709447702700e-04 9.8999999999999999e-04 0.0000000000000000e+00  -1.2627815865038261e-04 9.8999999999999999e-04 0.0000000000000000e+00  -1.3287188612007682e-04 9.8999999999999999e-04 0.0000000000000000e+00  -1.3945951589961809e-04 9.8999999999999999e-04 0.0000000000000000e+00  -1.4604482149858339e-04 9.8999999999999999e-04 0.0000000000000000e+00  -1.5263205245389871e-04 9.8999999999999999e-04 0.0000000000000000e+00  -1.5920711463911346e-04 9.8999999999999999e-04 0.0000000000000000e+00  -1.6579152659232984e-04 9.8999999999999999e-04 0.0000000000000000e+00  -1.7238462306544888e-04 9.8999999999999999e-04 0.0000000000000000e+00  -1.7897191862550115e-04 9.8999999999999999e-04 0.0000000000000000e+00  -1.8557213491388898e-04 9.8999999999999999e-04 0.0000000000000000e+00  -1.9218250188111094e-04 9.8999999999999999e-04 0.0000000000000000e+00  -1.9880500316970401e-04 9.8999999999999999e-04 0.0000000000000000e+00  -2.0543232332633494e-04 9.8999999999999999e-04 0.0000000000000000e+00  -2.1206060279432850e-04 9.8999999999999999e-04 0.0000000000000000e+00  -2.1869978713902948e-04 9.8999999999999999e-04 0.0000000000000000e+00  -2.2535188170543139e-04 9.8999999999999999e-04 0.0000000000000000e+00  -2.3200464229174779e-04 9.8999999999999999e-04 0.0000000000000000e+00  -2.3866004082217409e-04 9.8999999999999999e-04 0.0000000000000000e+00  -2.4531763546876924e-04 9.8999999999999999e-04 0.0000000000000000e+00  -2.5198037594797659e-04 9.8999999999999999e-04 0.0000000000000000e+00  -2.5863281978048911e-04 9.8999999999999999e-04 0.0000000000000000e+00  -2.6528771666444460e-04 9.8999999999999999e-04 0.0000000000000000e+00  -2.7192384720938238e-04 9.8999999999999999e-04 0.0000000000000000e+00  -2.7855795899930051e-04 9.8999999999999999e-04 0.0000000000000000e+00  -2.8517929080651574e-04 9.8999999999999999e-04 0.0000000000000000e+00  -2.9177312839725799e-04 9.8999999999999999e-04 0.0000000000000000e+00  -2.9834833000175236e-04 9.8999999999999999e-04 0.0000000000000000e+00  -3.0490089864313754e-04 9.8999999999999999e-04 0.0000000000000000e+00  -3.1142228782837664e-04 9.8999999999999999e-04 0.0000000000000000e+00  -3.1790481466231735e-04 9.8999999999999999e-04 0.0000000000000000e+00  -3.2436771346986066e-04 9.8999999999999999e-04 0.0000000000000000e+00  -3.3078028696295018e-04 9.8999999999999999e-04 0.0000000000000000e+00  -3.3714665002029939e-04 9.8999999999999999e-04 0.0000000000000000e+00  -3.4346418337906424e-04 9.8999999999999999e-04 0.0000000000000000e+00  -3.4972312484042833e-04 9.8999999999999999e-04 0.0000000000000000e+00  -3.5593231430519916e-04 9.8999999999999999e-04 0.0000000000000000e+00  -3.6209186124989073e-04 9.8999999999999999e-04 0.0000000000000000e+00  -3.6816527106337763e-04 9.8999999999999999e-04 0.0000000000000000e+00  -3.7419864617367594e-04 9.8999999999999999e-04 0.0000000000000000e+00  -3.8008707654334391e-04 9.7218450508219445e-04 0.0000000000000000e+00  -3.7977724554059380e-04 9.5436641485534756e-04 0.0000000000000000e+00  -3.7934063431472161e-04 9.3654603655935593e-04 0.0000000000000000e+00  -3.7866405026047630e-04 9.1872340674335957e-04 0.0000000000000000e+00  -3.7781706999738210e-04 9.0092320480154322e-04 0.0000000000000000e+00  -3.7673889818783536e-04 8.8308346030170214e-04 0.0000000000000000e+00  -3.7549145536878374e-04 8.6527687484465581e-04 0.0000000000000000e+00  -3.7405297184654626e-04 8.4744150605102161e-04 0.0000000000000000e+00  -3.7239471612628150e-04 8.2960877868241696e-04 0.0000000000000000e+00  -3.7053100894786291e-04 8.1179965479836970e-04 0.0000000000000000e+00  -3.6846191894552302e-04 7.9395123976433012e-04 0.0000000000000000e+00  -3.6617890263831657e-04 7.7611127898641016e-04 0.0000000000000000e+00  -3.6368538796706709e-04 7.5824630091535596e-04 0.0000000000000000e+00  -3.6095754544960917e-04 7.4041517684657972e-04 0.0000000000000000e+00  -3.5801699222500920e-04 7.2252323780460715e-04 0.0000000000000000e+00  -3.5483279434105313e-04 7.0460786995060732e-04 0.0000000000000000e+00  -3.5140780884869774e-04 6.8671619681333221e-04 0.0000000000000000e+00  -3.4773881575315019e-04 6.6876554447673831e-04 0.0000000000000000e+00  -3.4380930561317429e-04 6.5083244254436113e-04 0.0000000000000000e+00  -3.3962060127347855e-04 6.3285533756118363e-04 0.0000000000000000e+00  -3.3517196014247089e-04 6.1479942705753134e-04 0.0000000000000000e+00  -3.3043042431806668e-04 5.9677855563633486e-04 0.0000000000000000e+00  -3.2540888952545206e-04 5.7865587495102610e-04 0.0000000000000000e+00  -3.2007115117792912e-04 5.6052253055831770e-04 0.0000000000000000e+00  -3.1445068334132767e-04 5.4229425565858243e-04 0.0000000000000000e+00  -3.0847971905138491e-04 5.2406277748753860e-04 0.0000000000000000e+00  -3.0220839305010580e-04 5.0567423460485877e-04 0.0000000000000000e+00  