<?xml version="1.0"?>
<VTKFile type="UnstructuredGrid"  version="0.1"  >
<UnstructuredGrid>
<Piece  NumberOfPoints="16512" NumberOfCells="32424">
<Points>
<DataArray  type="Float64"  NumberOfComponents="3"  format="ascii">-25 4.9 0  25 4.9 0  25 -4.9 0  -25 -4.9 0  -10 0 0  10 0 0  -24.80000000000034 4.9 0  -24.60000000000068 4.9 0  -24.40000000000101 4.9 0  -24.20000000000135 4.9 0  -24.00000000000169 4.9 0  -23.80000000000203 4.9 0  -23.60000000000237 4.9 0  -23.40000000000271 4.9 0  -23.20000000000304 4.9 0  -23.00000000000338 4.9 0  -22.80000000000372 4.9 0  -22.60000000000406 4.9 0  -22.40000000000439 4.9 0  -22.20000000000473 4.9 0  -22.00000000000507 4.9 0  -21.80000000000541 4.9 0  -21.60000000000575 4.9 0  -21.40000000000608 4.9 0  -21.20000000000642 4.9 0  -21.00000000000676 4.9 0  -20.8000000000071 4.9 0  -20.60000000000744 4.9 0  -20.40000000000777 4.9 0  -20.20000000000811 4.9 0  -20.00000000000845 4.9 0  -19.80000000000879 4.9 0  -19.60000000000912 4.9 0  -19.40000000000946 4.9 0  -19.2000000000098 4.9 0  -19.00000000001039 4.9 0  -18.80000000001108 4.9 0  -18.60000000001231 4.9 0  -18.40000000001371 4.9 0  -18.2000000000154 4.9 0  -18.00000000001716 4.9 0  -17.80000000001892 4.9 0  -17.60000000002067 4.9 0  -17.40000000002243 4.9 0  -17.20000000002419 4.9 0  -17.00000000002595 4.9 0  -16.80000000002771 4.9 0  -16.60000000002947 4.9 0  -16.40000000003123 4.9 0  -16.20000000003299 4.9 0  -16.00000000003472 4.9 0  -15.80000000003612 4.9 0  -15.60000000003748 4.9 0  -15.40000000003853 4.9 0  -15.20000000003958 4.9 0  -15.00000000004063 4.9 0  -14.80000000004168 4.9 0  -14.60000000004273 4.9 0  -14.40000000004377 4.9 0  -14.20000000004482 4.9 0  -14.00000000004587 4.9 0  -13.80000000004692 4.9 0  -13.60000000004797 4.9 0  -13.40000000004902 4.9 0  -13.20000000005007 4.9 0  -13.00000000005111 4.9 0  -12.80000000005216 4.9 0  -12.60000000005321 4.9 0  -12.40000000005426 4.9 0  -12.20000000005531 4.9 0  -12.00000000005636 4.9 0  -11.80000000005741 4.9 0  -11.60000000005846 4.9 0  -11.4000000000595 4.9 0  -11.20000000006055 4.9 0  -11.0000000000616 4.9 0  -10.80000000006265 4.9 0  -10.6000000000637 4.9 0  -10.40000000006475 4.9 0  -10.2000000000658 4.9 0  -10.00000000006684 4.9 0  -9.800000000067891 4.9 0  -9.60000000006894 4.9 0  -9.400000000069989 4.9 0  -9.200000000070727 4.9 0  -9.00000000007142 4.9 0  -8.800000000071787 4.9 0  -8.600000000072125 4.9 0  -8.400000000072467 4.9 0  -8.200000000072805 4.9 0  -8.000000000073143 4.9 0  -7.800000000073481 4.9 0  -7.60000000007382 4.9 0  -7.400000000074154 4.9 0  -7.200000000074493 4.9 0  -7.000000000074831 4.9 0  -6.800000000075173 4.9 0  -6.600000000075511 4.9 0  -6.400000000075849 4.9 0  -6.200000000076187 4.9 0  -6.000000000076525 4.9 0  -5.800000000076867 4.9 0  -5.600000000077205 4.9 0  -5.400000000077544 4.9 0  -5.200000000077882 4.9 0  -5.00000000007822 4.9 0  -4.800000000078558 4.9 0  -4.600000000078897 4.9 0  -4.400000000079235 4.9 0  -4.200000000079573 4.9 0  -4.000000000079908 4.9 0  -3.800000000080246 4.9 0  -3.600000000080588 4.9 0  -3.400000000080926 4.9 0  -3.200000000081264 4.9 0  -3.000000000081606 4.9 0  -2.800000000081944 4.9 0  -2.600000000082282 4.9 0  -2.40000000008262 4.9 0  -2.200000000082959 4.9 0  -2.000000000083297 4.9 0  -1.800000000083635 4.9 0  -1.600000000083973 4.9 0  -1.400000000084312 4.9 0  -1.20000000008465 4.9 0  -1.000000000084988 4.9 0  -0.8000000000853262 4.9 0  -0.6000000000856645 4.9 0  -0.4000000000860027 4.9 0  -0.2000000000863409 4.9 0  -8.667910833537462e-11 4.9 0  0.1999999999129827 4.9 0  0.3999999999126409 4.9 0  0.5999999999123027 4.9 0  0.7999999999119716 4.9 0  0.9999999999116262 4.9 0  1.199999999911295 4.9 0  1.39999999991095 4.9 0  1.599999999910619 4.9 0  1.799999999910273 4.9 0  1.999999999909939 4.9 0  2.199999999909597 4.9 0  2.399999999909262 4.9 0  2.599999999908921 4.9 0  2.799999999908582 4.9 0  2.999999999908244 4.9 0  3.199999999907906 4.9 0  3.399999999907564 4.9 0  3.599999999907226 4.9 0  3.799999999906888 4.9 0  3.999999999906549 4.9 0  4.199999999906218 4.9 0  4.399999999905873 4.9 0  4.599999999905542 4.9 0  4.799999999905197 4.9 0  4.999999999904865 4.9 0  5.19999999990452 4.9 0  5.399999999904182 4.9 0  5.599999999903844 4.9 0  5.799999999903505 4.9 0  5.999999999903167 4.9 0  6.199999999902829 4.9 0  6.399999999902491 4.9 0  6.599999999902153 4.9 0  6.799999999902379 4.9 0  6.999999999902752 4.9 0  7.199999999903724 4.9 0  7.399999999904807 4.9 0  7.59999999990589 4.9 0  7.799999999906966 4.9 0  7.999999999908056 4.9 0  8.199999999909132 4.9 0  8.399999999910214 4.9 0  8.59999999991129 4.9 0  8.79999999991238 4.9 0  8.999999999913456 4.9 0  9.199999999914539 4.9 0  9.399999999915622 4.9 0  9.599999999916704 4.9 0  9.79999999991778 4.9 0  9.99999999991887 4.9 0  10.19999999991995 4.9 0  10.39999999992103 4.9 0  10.59999999992212 4.9 0  10.79999999992319 4.9 0  10.99999999992428 4.9 0  11.19999999992536 4.9 0  11.39999999992644 4.9 0  11.59999999992752 4.9 0  11.7999999999286 4.9 0  11.99999999992968 4.9 0  12.19999999993077 4.9 0  12.39999999993184 4.9 0  12.59999999993293 4.9 0  12.79999999993401 4.9 0  12.99999999993509 4.9 0  13.19999999993617 4.9 0  13.39999999993726 4.9 0  13.59999999993834 4.9 0  13.79999999993942 4.9 0  13.99999999994051 4.9 0  14.19999999994158 4.9 0  14.39999999994266 4.9 0  14.59999999994375 4.9 0  14.79999999994483 4.9 0  14.99999999994591 4.9 0  15.199999999947 4.9 0  15.39999999994807 4.9 0  15.59999999994915 4.9 0  15.79999999995024 4.9 0  15.99999999995132 4.9 0  16.1999999999524 4.9 0  16.39999999995349 4.9 0  16.59999999995456 4.9 0  16.79999999995565 4.9 0  16.99999999995674 4.9 0  17.19999999995781 4.9 0  17.39999999995889 4.9 0  17.59999999995997 4.9 0  17.79999999996106 4.9 0  17.99999999996214 4.9 0  18.19999999996322 4.9 0  18.3999999999643 4.9 0  18.59999999996538 4.9 0  18.79999999996646 4.9 0  18.99999999996755 4.9 0  19.19999999996863 4.9 0  19.39999999996971 4.9 0  19.59999999997079 4.9 0  19.79999999997187 4.9 0  19.99999999997296 4.9 0  20.19999999997404 4.9 0  20.39999999997512 4.9 0  20.5999999999762 4.9 0  20.79999999997728 4.9 0  20.99999999997836 4.9 0  21.19999999997945 4.9 0  21.39999999998052 4.9 0  21.59999999998161 4.9 0  21.79999999998269 4.9 0  21.99999999998377 4.9 0  22.19999999998485 4.9 0  22.39999999998594 4.9 0  22.59999999998701 4.9 0  22.7999999999881 4.9 0  22.99999999998919 4.9 0  23.19999999999026 4.9 0  23.39999999999135 4.9 0  23.59999999999243 4.9 0  23.79999999999351 4.9 0  23.99999999999459 4.9 0  24.19999999999568 4.9 0  24.39999999999675 4.9 0  24.59999999999783 4.9 0  24.79999999999892 4.9 0  25 4.700000000000415 0  25 4.500000000000868 0  25 4.300000000001562 0  25 4.100000000001831 0  25 3.900000000002072 0  25 3.700000000002459 0  25 3.500000000003038 0  25 3.300000000003653 0  25 3.100000000004294 0  25 2.900000000004838 0  25 2.700000000005293 0  25 2.500000000005957 0  25 2.300000000006508 0  25 2.100000000007153 0  25 1.900000000007722 0  25 1.700000000008417 0  25 1.500000000008938 0  25 1.30000000000963 0  25 1.100000000010154 0  25 0.9000000000108268 0  25 0.7000000000114559 0  25 0.5000000000119762 0  25 0.3000000000126564 0  25 0.1000000000131926 0  25 -0.09999999998679243 0  25 -0.2999999999874587 0  25 -0.4999999999878586 0  25 -0.6999999999884441 0  25 -0.899999999988804 0  25 -1.099999999989427 0  25 -1.299999999989749 0  25 -1.499999999990411 0  25 -1.69999999999073 0  25 -1.899999999991396 0  25 -2.099999999991715 0  25 -2.299999999992381 0  25 -2.499999999993047 0  25 -2.699999999993714 0  25 -2.899999999994227 0  25 -3.099999999994698 0  25 -3.299999999994673 0  25 -3.499999999995339 0  25 -3.699999999996004 0  25 -3.89999999999667 0  25 -4.099999999997335 0  25 -4.299999999998002 0  25 -4.499999999998668 0  25 -4.699999999999335 0  24.80000000000034 -4.9 0  24.60000000000068 -4.9 0  24.40000000000101 -4.9 0  24.20000000000135 -4.9 0  24.00000000000169 -4.9 0  23.80000000000203 -4.9 0  23.60000000000237 -4.9 0  23.40000000000271 -4.9 0  23.20000000000304 -4.9 0  23.00000000000338 -4.9 0  22.80000000000372 -4.9 0  22.60000000000406 -4.9 0  22.40000000000439 -4.9 0  22.20000000000473 -4.9 0  22.00000000000507 -4.9 0  21.80000000000541 -4.9 0  21.60000000000575 -4.9 0  21.40000000000608 -4.9 0  21.20000000000642 -4.9 0  21.00000000000676 -4.9 0  20.8000000000071 -4.9 0  20.60000000000744 -4.9 0  20.40000000000777 -4.9 0  20.20000000000811 -4.9 0  20.00000000000845 -4.9 0  19.80000000000879 -4.9 0  19.60000000000912 -4.9 0  19.40000000000946 -4.9 0  19.2000000000098 -4.9 0  19.00000000001039 -4.9 0  18.80000000001108 -4.9 0  18.60000000001231 -4.9 0  18.40000000001371 -4.9 0  18.2000000000154 -4.9 0  18.00000000001716 -4.9 0  17.80000000001892 -4.9 0  17.60000000002067 -4.9 0  17.40000000002243 -4.9 0  17.20000000002419 -4.9 0  17.00000000002595 -4.9 0  16.80000000002771 -4.9 0  16.60000000002947 -4.9 0  16.40000000003123 -4.9 0  16.20000000003299 -4.9 0  16.00000000003472 -4.9 0  15.80000000003612 -4.9 0  15.60000000003748 -4.9 0  15.40000000003853 -4.9 0  15.20000000003958 -4.9 0  15.00000000004063 -4.9 0  14.80000000004168 -4.9 0  14.60000000004273 -4.9 0  14.40000000004377 -4.9 0  14.20000000004482 -4.9 0  14.00000000004587 -4.9 0  13.80000000004692 -4.9 0  13.60000000004797 -4.9 0  13.40000000004902 -4.9 0  13.20000000005007 -4.9 0  13.00000000005111 -4.9 0  12.80000000005216 -4.9 0  12.60000000005321 -4.9 0  12.40000000005426 -4.9 0  12.20000000005531 -4.9 0  12.00000000005636 -4.9 0  11.80000000005741 -4.9 0  11.60000000005846 -4.9 0  11.4000000000595 -4.9 0  11.20000000006055 -4.9 0  11.0000000000616 -4.9 0  10.80000000006265 -4.9 0  10.6000000000637 -4.9 0  10.40000000006475 -4.9 0  10.2000000000658 -4.9 0  10.00000000006684 -4.9 0  9.800000000067891 -4.9 0  9.60000000006894 -4.9 0  9.400000000069989 -4.9 0  9.200000000070727 -4.9 0  9.00000000007142 -4.9 0  8.800000000071787 -4.9 0  8.600000000072125 -4.9 0  8.400000000072467 -4.9 0  8.200000000072805 -4.9 0  8.000000000073143 -4.9 
[...]
<PointData  Vectors="f_7"> 
<DataArray  type="Float64"  Name="f_7"  NumberOfComponents="3" format="ascii">1.2941572125360680e-04 2.9999999999999997e-04 0.0000000000000000e+00  -1.2953182519527361e-04 2.9999999999999997e-04 0.0000000000000000e+00  0.0000000000000000e+00 0.0000000000000000e+00 0.0000000000000000e+00  0.0000000000000000e+00 0.0000000000000000e+00 0.0000000000000000e+00  2.3334593884613803e-05 1.5017127335923403e-04 0.0000000000000000e+00  -2.2855639954797312e-05 1.4770586133116358e-04 0.0000000000000000e+00  1.2765954714956623e-04 2.9999999999999997e-04 0.0000000000000000e+00  1.2589030040605707e-04 2.9999999999999997e-04 0.0000000000000000e+00  1.2411003475931866e-04 2.9999999999999997e-04 0.0000000000000000e+00  1.2229192781925652e-04 2.9999999999999997e-04 0.0000000000000000e+00  1.2046564505751389e-04 2.9999999999999997e-04 0.0000000000000000e+00  1.1861208138816222e-04 2.9999999999999997e-04 0.0000000000000000e+00  1.1674766392143957e-04 2.9999999999999997e-04 0.0000000000000000e+00  1.1486143122446518e-04 2.9999999999999997e-04 0.0000000000000000e+00  1.1297105504342267e-04 2.9999999999999997e-04 0.0000000000000000e+00  1.1106262566609916e-04 2.9999999999999997e-04 0.0000000000000000e+00  1.0914477971596979e-04 2.9999999999999997e-04 0.0000000000000000e+00  1.0722720635189210e-04 2.9999999999999997e-04 0.0000000000000000e+00  1.0528869268937378e-04 2.9999999999999997e-04 0.0000000000000000e+00  1.0335304222179966e-04 2.9999999999999997e-04 0.0000000000000000e+00  1.0141642115954270e-04 2.9999999999999997e-04 0.0000000000000000e+00  9.9480486395603877e-05 2.9999999999999997e-04 0.0000000000000000e+00  9.7531521255351733e-05 2.9999999999999997e-04 0.0000000000000000e+00  9.5590685196487397e-05 2.9999999999999997e-04 0.0000000000000000e+00  9.3656564985385312e-05 2.9999999999999997e-04 0.0000000000000000e+00  9.1716339540539525e-05 2.9999999999999997e-04 0.0000000000000000e+00  8.9784570116490590e-05 2.9999999999999997e-04 0.0000000000000000e+00  8.7859439121768977e-05 2.9999999999999997e-04 0.0000000000000000e+00  8.5944245048865845e-05 2.9999999999999997e-04 0.0000000000000000e+00  8.4040031949190420e-05 2.9999999999999997e-04 0.0000000000000000e+00  8.2131995466736904e-05 2.9999999999999997e-04 0.0000000000000000e+00  8.0238012474600915e-05 2.9999999999999997e-04 0.0000000000000000e+00  7.8356894488261868e-05 2.9999999999999997e-04 0.0000000000000000e+00  7.6484221336093288e-05 2.9999999999999997e-04 0.0000000000000000e+00  7.4622817814686405e-05 2.9999999999999997e-04 0.0000000000000000e+00  7.2773902026770947e-05 2.9999999999999997e-04 0.0000000000000000e+00  7.0934366394803991e-05 2.9999999999999997e-04 0.0000000000000000e+00  6.9107230203437666e-05 2.9999999999999997e-04 0.0000000000000000e+00  6.7292436827633492e-05 2.9999999999999997e-04 0.0000000000000000e+00  6.5491988584507157e-05 2.9999999999999997e-04 0.0000000000000000e+00  6.3695566378260541e-05 2.9999999999999997e-04 0.0000000000000000e+00  6.1914647357348340e-05 2.9999999999999997e-04 0.0000000000000000e+00  6.0143518902723182e-05 2.9999999999999997e-04 0.0000000000000000e+00  5.8385212430953698e-05 2.9999999999999997e-04 0.0000000000000000e+00  5.6633217621211854e-05 2.9999999999999997e-04 0.0000000000000000e+00  5.4892357920880287e-05 2.9999999999999997e-04 0.0000000000000000e+00  5.3161637857795548e-05 2.9999999999999997e-04 0.0000000000000000e+00  5.1438913291634408e-05 2.9999999999999997e-04 0.0000000000000000e+00  4.9723388577285493e-05 2.9999999999999997e-04 0.0000000000000000e+00  4.8014455874702914e-05 2.9999999999999997e-04 0.0000000000000000e+00  4.6310934174230893e-05 2.9999999999999997e-04 0.0000000000000000e+00  4.4612882199308098e-05 2.9999999999999997e-04 0.0000000000000000e+00  4.2919375223050974e-05 2.9999999999999997e-04 0.0000000000000000e+00  4.1229160769511474e-05 2.9999999999999997e-04 0.0000000000000000e+00  3.9541875734138173e-05 2.9999999999999997e-04 0.0000000000000000e+00  3.7857081351367557e-05 2.9999999999999997e-04 0.0000000000000000e+00  3.6173218020689807e-05 2.9999999999999997e-04 0.0000000000000000e+00  3.4489321250454699e-05 2.9999999999999997e-04 0.0000000000000000e+00  3.2806482624827449e-05 2.9999999999999997e-04 0.0000000000000000e+00  3.1122786260559621e-05 2.9999999999999997e-04 0.0000000000000000e+00  2.9440570792099000e-05 2.9999999999999997e-04 0.0000000000000000e+00  2.7758498876770766e-05 2.9999999999999997e-04 0.0000000000000000e+00  2.6077097990539692e-05 2.9999999999999997e-04 0.0000000000000000e+00  2.4397243417106049e-05 2.9999999999999997e-04 0.0000000000000000e+00  2.2721890837089193e-05 2.9999999999999997e-04 0.0000000000000000e+00  2.1050864294927691e-05 2.9999999999999997e-04 0.0000000000000000e+00  1.9393381101402642e-05 2.9999999999999997e-04 0.0000000000000000e+00  1.7746362931498184e-05 2.9999999999999997e-04 0.0000000000000000e+00  1.6115239234795190e-05 2.9999999999999997e-04 0.0000000000000000e+00  1.4502567964857347e-05 2.9999999999999997e-04 0.0000000000000000e+00  1.2915601721017882e-05 2.9999999999999997e-04 0.0000000000000000e+00  1.1365554065440985e-05 2.9999999999999997e-04 0.0000000000000000e+00  9.8562487067492854e-06 2.9999999999999997e-04 0.0000000000000000e+00  8.4043279200355633e-06 2.9999999999999997e-04 0.0000000000000000e+00  6.9983985928327788e-06 2.9999999999999997e-04 0.0000000000000000e+00  5.6419079251565672e-06 2.9999999999999997e-04 0.0000000000000000e+00  4.3630517406124671e-06 2.9999999999999997e-04 0.0000000000000000e+00  3.1747469193621425e-06 2.9999999999999997e-04 0.0000000000000000e+00  2.0678514082253091e-06 2.9999999999999997e-04 0.0000000000000000e+00  1.0339112588286739e-06 2.9999999999999997e-04 0.0000000000000000e+00  1.1254644687058116e-07 2.9999999999999997e-04 0.0000000000000000e+00  -7.2661199053922831e-07 2.9999999999999997e-04 0.0000000000000000e+00  -1.4643334827156194e-06 2.9999999999999997e-04 0.0000000000000000e+00  -2.0947566734678977e-06 2.9999999999999997e-04 0.0000000000000000e+00  -2.6330906453578313e-06 2.9999999999999997e-04 0.0000000000000000e+00  -3.0841571393066138e-06 2.9999999999999997e-04 0.0000000000000000e+00  -3.4435120051189213e-06 2.9999999999999997e-04 0.0000000000000000e+00  -3.7154234453214061e-06 2.9999999999999997e-04 0.0000000000000000e+00  -3.9051904918775302e-06 2.9999999999999997e-04 0.0000000000000000e+00  -4.0217862447628970e-06 2.9999999999999997e-04 0.0000000000000000e+00  -4.0812275905839203e-06 2.9999999999999997e-04 0.0000000000000000e+00  -4.0872242483445801e-06 2.9999999999999997e-04 0.0000000000000000e+00  -4.0366023554166045e-06 2.9999999999999997e-04 0.0000000000000000e+00  -3.9400149654656008e-06 2.9999999999999997e-04 0.0000000000000000e+00  -3.8159198060304274e-06 2.9999999999999997e-04 0.0000000000000000e+00  -3.6639283196358957e-06 2.9999999999999997e-04 0.0000000000000000e+00  -3.4904500748261017e-06 2.9999999999999997e-04 0.0000000000000000e+00  -3.2937177745371080e-06 2.9999999999999997e-04 0.0000000000000000e+00  -3.0886724122008684e-06 2.9999999999999997e-04 0.0000000000000000e+00  -2.8767139675666768e-06 2.9999999999999997e-04 0.0000000000000000e+00  -2.6633495998314958e-06 2.9999999999999997e-04 0.0000000000000000e+00  -2.4467163641134875e-06 2.9999999999999997e-04 0.0000000000000000e+00  -2.2354160456311991e-06 2.9999999999999997e-04 0.0000000000000000e+00  -2.0306090956636687e-06 2.9999999999999997e-04 0.0000000000000000e+00  -1.8334709389139701e-06 2.9999999999999997e-04 0.0000000000000000e+00  -1.6458685194753886e-06 2.9999999999999997e-04 0.0000000000000000e+00  -1.4697131991428621e-06 2.9999999999999997e-04 0.0000000000000000e+00  -1.3065144429649677e-06 2.9999999999999997e-04 0.0000000000000000e+00  -1.1533046682203701e-06 2.9999999999999997e-04 0.0000000000000000e+00  -1.0143709363884383e-06 2.9999999999999997e-04 0.0000000000000000e+00  -8.8919493383319755e-07 2.9999999999999997e-04 0.0000000000000000e+00  -7.7848645730468669e-07 2.9999999999999997e-04 0.0000000000000000e+00  -6.8111211633349301e-07 2.9999999999999997e-04 0.0000000000000000e+00  -5.9653672288688928e-07 2.9999999999999997e-04 0.0000000000000000e+00  -5.2406740924724429e-07 2.9999999999999997e-04 0.0000000000000000e+00  -4.6442533741056058e-07 2.9999999999999997e-04 0.0000000000000000e+00  -4.1609580726006708e-07 2.9999999999999997e-04 0.0000000000000000e+00  -3.7827878394214347e-07 2.9999999999999997e-04 0.0000000000000000e+00  -3.4917416232762721e-07 2.9999999999999997e-04 0.0000000000000000e+00  -3.2934189781209708e-07 2.9999999999999997e-04 0.0000000000000000e+00  -3.1645873238743316e-07 2.9999999999999997e-04 0.0000000000000000e+00  -3.1083128711736054e-07 2.9999999999999997e-04 0.0000000000000000e+00  -3.1033660324119594e-07 2.9999999999999997e-04 0.0000000000000000e+00  -3.1479387742487714e-07 2.9999999999999997e-04 0.0000000000000000e+00  -3.2292878989222501e-07 2.9999999999999997e-04 0.0000000000000000e+00  -3.3371677586262905e-07 2.9999999999999997e-04 0.0000000000000000e+00  -3.4641737537862220e-07 2.9999999999999997e-04 0.0000000000000000e+00  -3.6004539217130507e-07 2.9999999999999997e-04 0.0000000000000000e+00  -3.7328799677844759e-07 2.9999999999999997e-04 0.0000000000000000e+00  -3.8582323149460447e-07 2.9999999999999997e-04 0.0000000000000000e+00  -3.9680593890457078e-07 2.9999999999999997e-04 0.0000000000000000e+00  -4.0557107885446226e-07 2.9999999999999997e-04 0.0000000000000000e+00  -4.1042019044968528e-07 2.9999999999999997e-04 0.0000000000000000e+00  -4.1192032832882377e-07 2.9999999999999997e-04 0.0000000000000000e+00  -4.0911314213355005e-07 2.9999999999999997e-04 0.0000000000000000e+00  -4.0051823699306232e-07 2.9999999999999997e-04 0.0000000000000000e+00  -3.8624191226195542e-07 2.9999999999999997e-04 0.0000000000000000e+00  -3.6547287455683925e-07 2.9999999999999997e-04 0.0000000000000000e+00  -3.3731888717353063e-07 2.9999999999999997e-04 0.0000000000000000e+00  -3.0230163278641751e-07 2.9999999999999997e-04 0.0000000000000000e+00  -2.5980443579697074e-07 2.9999999999999997e-04 0.0000000000000000e+00  -2.0946371092379368e-07 2.9999999999999997e-04 0.0000000000000000e+00  -1.5051672793152259e-07 2.9999999999999997e-04 0.0000000000000000e+00  -8.3064002139372802e-08 2.9999999999999997e-04 0.0000000000000000e+00  -6.6795445420680531e-09 2.9999999999999997e-04 0.0000000000000000e+00  7.9091306727201054e-08 2.9999999999999997e-04 0.0000000000000000e+00  1.7407570721760930e-07 2.9999999999999997e-04 0.0000000000000000e+00  2.7951801442527449e-07 2.9999999999999997e-04 0.0000000000000000e+00  3.9499287993004650e-07 2.9999999999999997e-04 0.0000000000000000e+00  5.1983506845434967e-07 2.9999999999999997e-04 0.0000000000000000e+00  6.5599503864718891e-07 2.9999999999999997e-04 0.0000000000000000e+00  8.0266238306716895e-07 2.9999999999999997e-04 0.0000000000000000e+00  9.6057202248964318e-07 2.9999999999999997e-04 0.0000000000000000e+00  1.1292491943034403e-06 2.9999999999999997e-04 0.0000000000000000e+00  1.3075138947951147e-06 2.9999999999999997e-04 0.0000000000000000e+00  1.4999977962682188e-06 2.9999999999999997e-04 0.0000000000000000e+00  1.6967209771918694e-06 2.9999999999999997e-04 0.0000000000000000e+00  1.9030589000367668e-06 2.9999999999999997e-04 0.0000000000000000e+00  2.1168952757656233e-06 2.9999999999999997e-04 0.0000000000000000e+00  2.3365243311129873e-06 2.9999999999999997e-04 0.0000000000000000e+00  2.5559486543684810e-06 2.9999999999999997e-04 0.0000000000000000e+00  2.7760878642981272e-06 2.9999999999999997e-04 0.0000000000000000e+00  2.9918323386277193e-06 2.9999999999999997e-04 0.0000000000000000e+00  3.2004606346832547e-06 2.9999999999999997e-04 0.0000000000000000e+00  3.3990067058449726e-06 2.9999999999999997e-04 0.0000000000000000e+00  3.5738186124368595e-06 2.9999999999999997e-04 0.0000000000000000e+00  3.7255527276175981e-06 2.9999999999999997e-04 0.0000000000000000e+00  3.8423927282835262e-06 2.9999999999999997e-04 0.0000000000000000e+00  3.9345628544535816e-06 2.9999999999999997e-04 0.0000000000000000e+00  3.9775153165982531e-06 2.9999999999999997e-04 0.0000000000000000e+00  3.9662427209685705e-06 2.9999999999999997e-04 0.0000000000000000e+00  3.9043068943273078e-06 2.9999999999999997e-04 0.0000000000000000e+00  3.7671109684586479e-06 2.9999999999999997e-04 0.0000000000000000e+00  3.5784231704051285e-06 2.9999999999999997e-04 0.0000000000000000e+00  3.3078525746245409e-06 2.9999999999999997e-04 0.0000000000000000e+00  2.9387137269427514e-06 2.9999999999999997e-04 0.0000000000000000e+00  2.4749481366901552e-06 2.9999999999999997e-04 0.0000000000000000e+00  1.9261993865883359e-06 2.9999999999999997e-04 0.0000000000000000e+00  1.2752666470398994e-06 2.9999999999999997e-04 0.0000000000000000e+00  5.2242032561364266e-07 2.9999999999999997e-04 0.0000000000000000e+00  -3.2366795012488703e-07 2.9999999999999997e-04 0.0000000000000000e+00  -1.2716517791456703e-06 2.9999999999999997e-04 0.0000000000000000e+00  -2.2801104134364104e-06 2.9999999999999997e-04 0.0000000000000000e+00  -3.4052183145754210e-06 2.9999999999999997e-04 0.0000000000000000e+00  -4.6092388156766901e-06 2.9999999999999997e-04 0.0000000000000000e+00  -5.8876333176782132e-06 2.9999999999999997e-04 0.0000000000000000e+00  -7.2378063801883372e-06 2.9999999999999997e-04 0.0000000000000000e+00  -8.6426576638758284e-06 2.9999999999999997e-04 0.0000000000000000e+00  -1.0110570421445657e-05 2.9999999999999997e-04 0.0000000000000000e+00  -1.1616685244919708e-05 2.9999999999999997e-04 0.0000000000000000e+00  -1.3170180419359475e-05 2.9999999999999997e-04 0.0000000000000000e+00  -1.4752062848704868e-05 2.9999999999999997e-04 0.0000000000000000e+00  -1.6359033961189598e-05 2.9999999999999997e-04 0.0000000000000000e+00  -1.7986041697053406e-05 2.9999999999999997e-04 0.0000000000000000e+00  -1.9633097443877752e-05 2.9999999999999997e-04 0.0000000000000000e+00  -2.1288828305011125e-05 2.9999999999999997e-04 0.0000000000000000e+00  -2.2954834602546573e-05 2.9999999999999997e-04 0.0000000000000000e+00  -2.4625733719426110e-05 2.9999999999999997e-04 0.0000000000000000e+00  -2.6300470691783752e-05 2.9999999999999997e-04 0.0000000000000000e+00  -2.7977561047974982e-05 2.9999999999999997e-04 0.0000000000000000e+00  -2.9655630543136448e-05 2.9999999999999997e-04 0.0000000000000000e+00  -3.1334186071051906e-05 2.9999999999999997e-04 0.0000000000000000e+00  -3.3012584636861555e-05 2.9999999999999997e-04 0.0000000000000000e+00  -3.4691281909056629e-05 2.9999999999999997e-04 0.0000000000000000e+00  -3.6370652624918915e-05 2.9999999999999997e-04 0.0000000000000000e+00  -3.8051387879859774e-05 2.9999999999999997e-04 0.0000000000000000e+00  -3.9732202278428320e-05 2.9999999999999997e-04 0.0000000000000000e+00  -4.1414998104613519e-05 2.9999999999999997e-04 0.0000000000000000e+00  -4.3101021889751235e-05 2.9999999999999997e-04 0.0000000000000000e+00  -4.4790500849086790e-05 2.9999999999999997e-04 0.0000000000000000e+00  -4.6485023270556380e-05 2.9999999999999997e-04 0.0000000000000000e+00  -4.8184835062785310e-05 2.9999999999999997e-04 0.0000000000000000e+00  -4.9890078353328232e-05 2.9999999999999997e-04 0.0000000000000000e+00  -5.1602666634370262e-05 2.9999999999999997e-04 0.0000000000000000e+00  -5.3323478771374072e-05 2.9999999999999997e-04 0.0000000000000000e+00  -5.5053645739325506e-05 2.9999999999999997e-04 0.0000000000000000e+00  -5.6792655940405054e-05 2.9999999999999997e-04 0.0000000000000000e+00  -5.8537573182561275e-05 2.9999999999999997e-04 0.0000000000000000e+00  -6.0295020364417907e-05 2.9999999999999997e-04 0.0000000000000000e+00  -6.2063661990416022e-05 2.9999999999999997e-04 0.0000000000000000e+00  -6.3845499274370026e-05 2.9999999999999997e-04 0.0000000000000000e+00  -6.5632281756297016e-05 2.9999999999999997e-04 0.0000000000000000e+00  -6.7434302510395835e-05 2.9999999999999997e-04 0.0000000000000000e+00  -6.9250465042113721e-05 2.9999999999999997e-04 0.0000000000000000e+00  -7.1073435519724074e-05 2.9999999999999997e-04 0.0000000000000000e+00  -7.2910281851274895e-05 2.9999999999999997e-04 0.0000000000000000e+00  -7.4759206012974130e-05 2.9999999999999997e-04 0.0000000000000000e+00  -7.6620668850087113e-05 2.9999999999999997e-04 0.0000000000000000e+00  -7.8491882572890494e-05 2.9999999999999997e-04 0.0000000000000000e+00  -8.0371675842093844e-05 2.9999999999999997e-04 0.0000000000000000e+00  -8.2262042239752745e-05 2.9999999999999997e-04 0.0000000000000000e+00  -8.4163772836169721e-05 2.9999999999999997e-04 0.0000000000000000e+00  -8.6072982172491678e-05 2.9999999999999997e-04 0.0000000000000000e+00  -8.7989368126893390e-05 2.9999999999999997e-04 0.0000000000000000e+00  -8.9912944849344546e-05 2.9999999999999997e-04 0.0000000000000000e+00  -9.1843832683782746e-05 2.9999999999999997e-04 0.0000000000000000e+00  -9.3776912215089996e-05 2.9999999999999997e-04 0.0000000000000000e+00  -9.5716535111247444e-05 2.9999999999999997e-04 0.0000000000000000e+00  -9.7654288512267730e-05 2.9999999999999997e-04 0.0000000000000000e+00  -9.9596548720906942e-05 2.9999999999999997e-04 0.0000000000000000e+00  -1.0153908077934067e-04 2.9999999999999997e-04 0.0000000000000000e+00  -1.0347652910934111e-04 2.9999999999999997e-04 0.0000000000000000e+00  -1.0541164326989260e-04 2.9999999999999997e-04 0.0000000000000000e+00  -1.0734270230971160e-04 2.9999999999999997e-04 0.0000000000000000e+00  -1.0926653850403564e-04 2.9999999999999997e-04 0.0000000000000000e+00  -1.1118022918205964e-04 2.9999999999999997e-04 0.0000000000000000e+00  -1.1309007933931469e-04 2.9999999999999997e-04 0.0000000000000000e+00  -1.1498507197059619e-04 2.9999999999999997e-04 0.0000000000000000e+00  -1.1686622808367109e-04 2.9999999999999997e-04 0.0000000000000000e+00  -1.1873227389370335e-04 2.9999999999999997e-04 0.0000000000000000e+00  -1.2057918102966378e-04 2.9999999999999997e-04 0.0000000000000000e+00  -1.2240974442436639e-04 2.9999999999999997e-04 0.0000000000000000e+00  -1.2422378373394956e-04 2.9999999999999997e-04 0.0000000000000000e+00  -1.2600662472274414e-04 2.9999999999999997e-04 0.0000000000000000e+00  -1.2777527069705359e-04 2.9999999999999997e-04 0.0000000000000000e+00  -1.2948894770656758e-04 2.9480044805373133e-04 0.0000000000000000e+00  -1.2936994878725978e-04 2.8959931270428654e-04 0.0000000000000000e+00  -1.2920205566512212e-04 2.8439639294523355e-04 0.0000000000000000e+00  -1.2894253830759739e-04 2.7919132765617073e-04 0.0000000000000000e+00  -1.2861799324129071e-04 2.7399275128795180e-04 0.0000000000000000e+00  -1.2820516328202288e-04 2.6877724606858499e-04 0.0000000000000000e+00  -1.2772811540202474e-04 2.6357158816697139e-04 0.0000000000000000e+00  -1.2717917479790908e-04 2.5835178065792766e-04 0.0000000000000000e+00  -1.2654770872372824e-04 2.5312949106154868e-04 0.0000000000000000e+00  -1.2583855125024122e-04 2.4791196411338637e-04 0.0000000000000000e+00  -1.2505441699900844e-04 2.4267548397598952e-04 0.0000000000000000e+00  -1.2418990401265296e-04 2.3743756536493224e-04 0.0000000000000000e+00  -1.2324963136104279e-04 2.3218539793529663e-04 0.0000000000000000e+00  -1.2222291038727862e-04 2.2693993392207865e-04 0.0000000000000000e+00  -1.2111980181012817e-04 2.2166713970286681e-04 0.0000000000000000e+00  -1.1992976231402957e-04 2.1637995664824816e-04 0.0000000000000000e+00  -1.1865278041581148e-04 2.1109469046922343e-04 0.0000000000000000e+00  -1.1729135555851304e-04 2.0578198282722340e-04 0.0000000000000000e+00  -1.1583687754516542e-04 2.0046854533289728e-04 0.0000000000000000e+00  -1.1429230842299417e-04 1.9513201840714786e-04 0.0000000000000000e+00  -1.1265989025790400e-04 1.8976108096295017e-04 0.0000000000000000e+00  -1.1092466648850708e-04 1.8439442665718470e-04 0.0000000000000000e+00  -1.0909674543664989e-04 1.7898524895869315e-04 0.0000000000000000e+00  -1.0715891764453370e-04 1.7356438242737524e-04 0.0000000000000000e+00  -1.0512938155930755e-04 1.6810304414106774e-04 0.0000000000000000e+00  -1.0298057390133370e-04 1.6263154083992883e-04 0.0000000000000000e+00  -1.0073588843796959e-04 1.5709870553533433e-04 0.00000000