<?xml version="1.0"?>
<VTKFile type="UnstructuredGrid"  version="0.1"  >
<UnstructuredGrid>
<Piece  NumberOfPoints="16512" NumberOfCells="32424">
<Points>
<DataArray  type="Float64"  NumberOfComponents="3"  format="ascii">-25 4.9 0  25 4.9 0  25 -4.9 0  -25 -4.9 0  -10 0 0  10 0 0  -24.80000000000034 4.9 0  -24.60000000000068 4.9 0  -24.40000000000101 4.9 0  -24.20000000000135 4.9 0  -24.00000000000169 4.9 0  -23.80000000000203 4.9 0  -23.60000000000237 4.9 0  -23.40000000000271 4.9 0  -23.20000000000304 4.9 0  -23.00000000000338 4.9 0  -22.80000000000372 4.9 0  -22.60000000000406 4.9 0  -22.40000000000439 4.9 0  -22.20000000000473 4.9 0  -22.00000000000507 4.9 0  -21.80000000000541 4.9 0  -21.60000000000575 4.9 0  -21.40000000000608 4.9 0  -21.20000000000642 4.9 0  -21.00000000000676 4.9 0  -20.8000000000071 4.9 0  -20.60000000000744 4.9 0  -20.40000000000777 4.9 0  -20.20000000000811 4.9 0  -20.00000000000845 4.9 0  -19.80000000000879 4.9 0  -19.60000000000912 4.9 0  -19.40000000000946 4.9 0  -19.2000000000098 4.9 0  -19.00000000001039 4.9 0  -18.80000000001108 4.9 0  -18.60000000001231 4.9 0  -18.40000000001371 4.9 0  -18.2000000000154 4.9 0  -18.00000000001716 4.9 0  -17.80000000001892 4.9 0  -17.60000000002067 4.9 0  -17.40000000002243 4.9 0  -17.20000000002419 4.9 0  -17.00000000002595 4.9 0  -16.80000000002771 4.9 0  -16.60000000002947 4.9 0  -16.40000000003123 4.9 0  -16.20000000003299 4.9 0  -16.00000000003472 4.9 0  -15.80000000003612 4.9 0  -15.60000000003748 4.9 0  -15.40000000003853 4.9 0  -15.20000000003958 4.9 0  -15.00000000004063 4.9 0  -14.80000000004168 4.9 0  -14.60000000004273 4.9 0  -14.40000000004377 4.9 0  -14.20000000004482 4.9 0  -14.00000000004587 4.9 0  -13.80000000004692 4.9 0  -13.60000000004797 4.9 0  -13.40000000004902 4.9 0  -13.20000000005007 4.9 0  -13.00000000005111 4.9 0  -12.80000000005216 4.9 0  -12.60000000005321 4.9 0  -12.40000000005426 4.9 0  -12.20000000005531 4.9 0  -12.00000000005636 4.9 0  -11.80000000005741 4.9 0  -11.60000000005846 4.9 0  -11.4000000000595 4.9 0  -11.20000000006055 4.9 0  -11.0000000000616 4.9 0  -10.80000000006265 4.9 0  -10.6000000000637 4.9 0  -10.40000000006475 4.9 0  -10.2000000000658 4.9 0  -10.00000000006684 4.9 0  -9.800000000067891 4.9 0  -9.60000000006894 4.9 0  -9.400000000069989 4.9 0  -9.200000000070727 4.9 0  -9.00000000007142 4.9 0  -8.800000000071787 4.9 0  -8.600000000072125 4.9 0  -8.400000000072467 4.9 0  -8.200000000072805 4.9 0  -8.000000000073143 4.9 0  -7.800000000073481 4.9 0  -7.60000000007382 4.9 0  -7.400000000074154 4.9 0  -7.200000000074493 4.9 0  -7.000000000074831 4.9 0  -6.800000000075173 4.9 0  -6.600000000075511 4.9 0  -6.400000000075849 4.9 0  -6.200000000076187 4.9 0  -6.000000000076525 4.9 0  -5.800000000076867 4.9 0  -5.600000000077205 4.9 0  -5.400000000077544 4.9 0  -5.200000000077882 4.9 0  -5.00000000007822 4.9 0  -4.800000000078558 4.9 0  -4.600000000078897 4.9 0  -4.400000000079235 4.9 0  -4.200000000079573 4.9 0  -4.000000000079908 4.9 0  -3.800000000080246 4.9 0  -3.600000000080588 4.9 0  -3.400000000080926 4.9 0  -3.200000000081264 4.9 0  -3.000000000081606 4.9 0  -2.800000000081944 4.9 0  -2.600000000082282 4.9 0  -2.40000000008262 4.9 0  -2.200000000082959 4.9 0  -2.000000000083297 4.9 0  -1.800000000083635 4.9 0  -1.600000000083973 4.9 0  -1.400000000084312 4.9 0  -1.20000000008465 4.9 0  -1.000000000084988 4.9 0  -0.8000000000853262 4.9 0  -0.6000000000856645 4.9 0  -0.4000000000860027 4.9 0  -0.2000000000863409 4.9 0  -8.667910833537462e-11 4.9 0  0.1999999999129827 4.9 0  0.3999999999126409 4.9 0  0.5999999999123027 4.9 0  0.7999999999119716 4.9 0  0.9999999999116262 4.9 0  1.199999999911295 4.9 0  1.39999999991095 4.9 0  1.599999999910619 4.9 0  1.799999999910273 4.9 0  1.999999999909939 4.9 0  2.199999999909597 4.9 0  2.399999999909262 4.9 0  2.599999999908921 4.9 0  2.799999999908582 4.9 0  2.999999999908244 4.9 0  3.199999999907906 4.9 0  3.399999999907564 4.9 0  3.599999999907226 4.9 0  3.799999999906888 4.9 0  3.999999999906549 4.9 0  4.199999999906218 4.9 0  4.399999999905873 4.9 0  4.599999999905542 4.9 0  4.799999999905197 4.9 0  4.999999999904865 4.9 0  5.19999999990452 4.9 0  5.399999999904182 4.9 0  5.599999999903844 4.9 0  5.799999999903505 4.9 0  5.999999999903167 4.9 0  6.199999999902829 4.9 0  6.399999999902491 4.9 0  6.599999999902153 4.9 0  6.799999999902379 4.9 0  6.999999999902752 4.9 0  7.199999999903724 4.9 0  7.399999999904807 4.9 0  7.59999999990589 4.9 0  7.799999999906966 4.9 0  7.999999999908056 4.9 0  8.199999999909132 4.9 0  8.399999999910214 4.9 0  8.59999999991129 4.9 0  8.79999999991238 4.9 0  8.999999999913456 4.9 0  9.199999999914539 4.9 0  9.399999999915622 4.9 0  9.599999999916704 4.9 0  9.79999999991778 4.9 0  9.99999999991887 4.9 0  10.19999999991995 4.9 0  10.39999999992103 4.9 0  10.59999999992212 4.9 0  10.79999999992319 4.9 0  10.99999999992428 4.9 0  11.19999999992536 4.9 0  11.39999999992644 4.9 0  11.59999999992752 4.9 0  11.7999999999286 4.9 0  11.99999999992968 4.9 0  12.19999999993077 4.9 0  12.39999999993184 4.9 0  12.59999999993293 4.9 0  12.79999999993401 4.9 0  12.99999999993509 4.9 0  13.19999999993617 4.9 0  13.39999999993726 4.9 0  13.59999999993834 4.9 0  13.79999999993942 4.9 0  13.99999999994051 4.9 0  14.19999999994158 4.9 0  14.39999999994266 4.9 0  14.59999999994375 4.9 0  14.79999999994483 4.9 0  14.99999999994591 4.9 0  15.199999999947 4.9 0  15.39999999994807 4.9 0  15.59999999994915 4.9 0  15.79999999995024 4.9 0  15.99999999995132 4.9 0  16.1999999999524 4.9 0  16.39999999995349 4.9 0  16.59999999995456 4.9 0  16.79999999995565 4.9 0  16.99999999995674 4.9 0  17.19999999995781 4.9 0  17.39999999995889 4.9 0  17.59999999995997 4.9 0  17.79999999996106 4.9 0  17.99999999996214 4.9 0  18.19999999996322 4.9 0  18.3999999999643 4.9 0  18.59999999996538 4.9 0  18.79999999996646 4.9 0  18.99999999996755 4.9 0  19.19999999996863 4.9 0  19.39999999996971 4.9 0  19.59999999997079 4.9 0  19.79999999997187 4.9 0  19.99999999997296 4.9 0  20.19999999997404 4.9 0  20.39999999997512 4.9 0  20.5999999999762 4.9 0  20.79999999997728 4.9 0  20.99999999997836 4.9 0  21.19999999997945 4.9 0  21.39999999998052 4.9 0  21.59999999998161 4.9 0  21.79999999998269 4.9 0  21.99999999998377 4.9 0  22.19999999998485 4.9 0  22.39999999998594 4.9 0  22.59999999998701 4.9 0  22.7999999999881 4.9 0  22.99999999998919 4.9 0  23.19999999999026 4.9 0  23.39999999999135 4.9 0  23.59999999999243 4.9 0  23.79999999999351 4.9 0  23.99999999999459 4.9 0  24.19999999999568 4.9 0  24.39999999999675 4.9 0  24.59999999999783 4.9 0  24.79999999999892 4.9 0  25 4.700000000000415 0  25 4.500000000000868 0  25 4.300000000001562 0  25 4.100000000001831 0  25 3.900000000002072 0  25 3.700000000002459 0  25 3.500000000003038 0  25 3.300000000003653 0  25 3.100000000004294 0  25 2.900000000004838 0  25 2.700000000005293 0  25 2.500000000005957 0  25 2.300000000006508 0  25 2.100000000007153 0  25 1.900000000007722 0  25 1.700000000008417 0  25 1.500000000008938 0  25 1.30000000000963 0  25 1.100000000010154 0  25 0.9000000000108268 0  25 0.7000000000114559 0  25 0.5000000000119762 0  25 0.3000000000126564 0  25 0.1000000000131926 0  25 -0.09999999998679243 0  25 -0.2999999999874587 0  25 -0.4999999999878586 0  25 -0.6999999999884441 0  25 -0.899999999988804 0  25 -1.099999999989427 0  25 -1.299999999989749 0  25 -1.499999999990411 0  25 -1.69999999999073 0  25 -1.899999999991396 0  25 -2.099999999991715 0  25 -2.299999999992381 0  25 -2.499999999993047 0  25 -2.699999999993714 0  25 -2.899999999994227 0  25 -3.099999999994698 0  25 -3.299999999994673 0  25 -3.499999999995339 0  25 -3.699999999996004 0  25 -3.89999999999667 0  25 -4.099999999997335 0  25 -4.299999999998002 0  25 -4.499999999998668 0  25 -4.699999999999335 0  24.80000000000034 -4.9 0  24.60000000000068 -4.9 0  24.40000000000101 -4.9 0  24.20000000000135 -4.9 0  24.00000000000169 -4.9 0  23.80000000000203 -4.9 0  23.60000000000237 -4.9 0  23.40000000000271 -4.9 0  23.20000000000304 -4.9 0  23.00000000000338 -4.9 0  22.80000000000372 -4.9 0  22.60000000000406 -4.9 0  22.40000000000439 -4.9 0  22.20000000000473 -4.9 0  22.00000000000507 -4.9 0  21.80000000000541 -4.9 0  21.60000000000575 -4.9 0  21.40000000000608 -4.9 0  21.20000000000642 -4.9 0  21.00000000000676 -4.9 0  20.8000000000071 -4.9 0  20.60000000000744 -4.9 0  20.40000000000777 -4.9 0  20.20000000000811 -4.9 0  20.00000000000845 -4.9 0  19.80000000000879 -4.9 0  19.60000000000912 -4.9 0  19.40000000000946 -4.9 0  19.2000000000098 -4.9 0  19.00000000001039 -4.9 0  18.80000000001108 -4.9 0  18.60000000001231 -4.9 0  18.40000000001371 -4.9 0  18.2000000000154 -4.9 0  18.00000000001716 -4.9 0  17.80000000001892 -4.9 0  17.60000000002067 -4.9 0  17.40000000002243 -4.9 0  17.20000000002419 -4.9 0  17.00000000002595 -4.9 0  16.80000000002771 -4.9 0  16.60000000002947 -4.9 0  16.40000000003123 -4.9 0  16.20000000003299 -4.9 0  16.00000000003472 -4.9 0  15.80000000003612 -4.9 0  15.60000000003748 -4.9 0  15.40000000003853 -4.9 0  15.20000000003958 -4.9 0  15.00000000004063 -4.9 0  14.80000000004168 -4.9 0  14.60000000004273 -4.9 0  14.40000000004377 -4.9 0  14.20000000004482 -4.9 0  14.00000000004587 -4.9 0  13.80000000004692 -4.9 0  13.60000000004797 -4.9 0  13.40000000004902 -4.9 0  13.20000000005007 -4.9 0  13.00000000005111 -4.9 0  12.80000000005216 -4.9 0  12.60000000005321 -4.9 0  12.40000000005426 -4.9 0  12.20000000005531 -4.9 0  12.00000000005636 -4.9 0  11.80000000005741 -4.9 0  11.60000000005846 -4.9 0  11.4000000000595 -4.9 0  11.20000000006055 -4.9 0  11.0000000000616 -4.9 0  10.80000000006265 -4.9 0  10.6000000000637 -4.9 0  10.40000000006475 -4.9 0  10.2000000000658 -4.9 0  10.00000000006684 -4.9 0  9.800000000067891 -4.9 0  9.60000000006894 -4.9 0  9.400000000069989 -4.9 0  9.200000000070727 -4.9 0  9.00000000007142 -4.9 0  8.800000000071787 -4.9 0  8.600000000072125 -4.9 0  8.400000000072467 -4.9 0  8.200000000072805 -4.9 0  8.000000000073143 -4.9 
[...]
<PointData  Vectors="f_7"> 
<DataArray  type="Float64"  Name="f_7"  NumberOfComponents="3" format="ascii">3.2132359275923030e-04 8.3000000000000012e-04 0.0000000000000000e+00  -3.2120177516068701e-04 8.3000000000000012e-04 0.0000000000000000e+00  0.0000000000000000e+00 0.0000000000000000e+00 0.0000000000000000e+00  0.0000000000000000e+00 0.0000000000000000e+00 0.0000000000000000e+00  4.4681549637394525e-05 4.1193315968299807e-04 0.0000000000000000e+00  -4.5406332180267693e-05 4.0035052290292907e-04 0.0000000000000000e+00  3.1630666230049697e-04 8.3000000000000012e-04 0.0000000000000000e+00  3.1125896960230510e-04 8.3000000000000012e-04 0.0000000000000000e+00  3.0618487109535826e-04 8.3000000000000012e-04 0.0000000000000000e+00  3.0102209069461563e-04 8.3000000000000012e-04 0.0000000000000000e+00  2.9583648021472953e-04 8.3000000000000012e-04 0.0000000000000000e+00  2.9058450760181966e-04 8.3000000000000012e-04 0.0000000000000000e+00  2.8530185287343286e-04 8.3000000000000012e-04 0.0000000000000000e+00  2.7996238650585079e-04 8.3000000000000012e-04 0.0000000000000000e+00  2.7460748075790680e-04 8.3000000000000012e-04 0.0000000000000000e+00  2.6920294923869537e-04 8.3000000000000012e-04 0.0000000000000000e+00  2.6376850497263277e-04 8.3000000000000012e-04 0.0000000000000000e+00  2.5832708568970623e-04 8.3000000000000012e-04 0.0000000000000000e+00  2.5282762615308339e-04 8.3000000000000012e-04 0.0000000000000000e+00  2.4732589868156570e-04 8.3000000000000012e-04 0.0000000000000000e+00  2.4181311338315091e-04 8.3000000000000012e-04 0.0000000000000000e+00  2.3629188765831696e-04 8.3000000000000012e-04 0.0000000000000000e+00  2.3072973653468152e-04 8.3000000000000012e-04 0.0000000000000000e+00  2.2517487986777651e-04 8.3000000000000012e-04 0.0000000000000000e+00  2.1962638754424672e-04 8.3000000000000012e-04 0.0000000000000000e+00  2.1405115211075592e-04 8.3000000000000012e-04 0.0000000000000000e+00  2.0848303574624470e-04 8.3000000000000012e-04 0.0000000000000000e+00  2.0291833133302052e-04 8.3000000000000012e-04 0.0000000000000000e+00  1.9736353248871915e-04 8.3000000000000012e-04 0.0000000000000000e+00  1.9182168042261845e-04 8.3000000000000012e-04 0.0000000000000000e+00  1.8625835299148681e-04 8.3000000000000012e-04 0.0000000000000000e+00  1.8071171176923577e-04 8.3000000000000012e-04 0.0000000000000000e+00  1.7518036399697101e-04 8.3000000000000012e-04 0.0000000000000000e+00  1.6965335967813010e-04 8.3000000000000012e-04 0.0000000000000000e+00  1.6413666696603186e-04 8.3000000000000012e-04 0.0000000000000000e+00  1.5863143846033342e-04 8.3000000000000012e-04 0.0000000000000000e+00  1.5312998441015027e-04 8.3000000000000012e-04 0.0000000000000000e+00  1.4763814803821644e-04 8.3000000000000012e-04 0.0000000000000000e+00  1.4215694265314722e-04 8.3000000000000012e-04 0.0000000000000000e+00  1.3668667583326870e-04 8.3000000000000012e-04 0.0000000000000000e+00  1.3120792572623923e-04 8.3000000000000012e-04 0.0000000000000000e+00  1.2573958007586696e-04 8.3000000000000012e-04 0.0000000000000000e+00  1.2027006720937629e-04 8.3000000000000012e-04 0.0000000000000000e+00  1.1480253605375294e-04 8.3000000000000012e-04 0.0000000000000000e+00  1.0932680097122033e-04 8.3000000000000012e-04 0.0000000000000000e+00  1.0384746949158989e-04 8.3000000000000012e-04 0.0000000000000000e+00  9.8360852608812179e-05 8.3000000000000012e-04 0.0000000000000000e+00  9.2861006180000363e-05 8.3000000000000012e-04 0.0000000000000000e+00  8.7344476237816553e-05 8.3000000000000012e-04 0.0000000000000000e+00  8.1809093954574903e-05 8.3000000000000012e-04 0.0000000000000000e+00  7.6250017962838597e-05 8.3000000000000012e-04 0.0000000000000000e+00  7.0664500666407556e-05 8.3000000000000012e-04 0.0000000000000000e+00  6.5051548242364333e-05 8.3000000000000012e-04 0.0000000000000000e+00  5.9401466384348848e-05 8.3000000000000012e-04 0.0000000000000000e+00  5.3711766592526079e-05 8.3000000000000012e-04 0.0000000000000000e+00  4.7986973591859114e-05 8.3000000000000012e-04 0.0000000000000000e+00  4.2215856031499552e-05 8.3000000000000012e-04 0.0000000000000000e+00  3.6400803650782217e-05 8.3000000000000012e-04 0.0000000000000000e+00  3.0539445967705554e-05 8.3000000000000012e-04 0.0000000000000000e+00  2.4613897048057556e-05 8.3000000000000012e-04 0.0000000000000000e+00  1.8664983840507543e-05 8.3000000000000012e-04 0.0000000000000000e+00  1.2663734778531983e-05 8.3000000000000012e-04 0.0000000000000000e+00  6.6198063018227574e-06 8.3000000000000012e-04 0.0000000000000000e+00  5.3212944904530859e-07 8.3000000000000012e-04 0.0000000000000000e+00  -5.5785568797732278e-06 8.3000000000000012e-04 0.0000000000000000e+00  -1.1721361351978254e-05 8.3000000000000012e-04 0.0000000000000000e+00  -1.7835340369251221e-05 8.3000000000000012e-04 0.0000000000000000e+00  -2.3947894662207121e-05 8.3000000000000012e-04 0.0000000000000000e+00  -3.0029932382501179e-05 8.3000000000000012e-04 0.0000000000000000e+00  -3.6070653642518521e-05 8.3000000000000012e-04 0.0000000000000000e+00  -4.2042346707581991e-05 8.3000000000000012e-04 0.0000000000000000e+00  -4.7868002110312301e-05 8.3000000000000012e-04 0.0000000000000000e+00  -5.3546615632648652e-05 8.3000000000000012e-04 0.0000000000000000e+00  -5.8994968829218685e-05 8.3000000000000012e-04 0.0000000000000000e+00  -6.4267579558347792e-05 8.3000000000000012e-04 0.0000000000000000e+00  -6.9344683448090160e-05 8.3000000000000012e-04 0.0000000000000000e+00  -7.4088709355652491e-05 8.3000000000000012e-04 0.0000000000000000e+00  -7.8435029624526116e-05 8.3000000000000012e-04 0.0000000000000000e+00  -8.2424302005102576e-05 8.3000000000000012e-04 0.0000000000000000e+00  -8.6097611939424317e-05 8.3000000000000012e-04 0.0000000000000000e+00  -8.9245656621584474e-05 8.3000000000000012e-04 0.0000000000000000e+00  -9.2023678875985087e-05 8.3000000000000012e-04 0.0000000000000000e+00  -9.4332614500125742e-05 8.3000000000000012e-04 0.0000000000000000e+00  -9.6132059452034652e-05 8.3000000000000012e-04 0.0000000000000000e+00  -9.7492238049192399e-05 8.3000000000000012e-04 0.0000000000000000e+00  -9.8431051810353147e-05 8.3000000000000012e-04 0.0000000000000000e+00  -9.8918843512644394e-05 8.3000000000000012e-04 0.0000000000000000e+00  -9.8970314250736852e-05 8.3000000000000012e-04 0.0000000000000000e+00  -9.8605083891317337e-05 8.3000000000000012e-04 0.0000000000000000e+00  -9.7859343345687533e-05 8.3000000000000012e-04 0.0000000000000000e+00  -9.6813817927925567e-05 8.3000000000000012e-04 0.0000000000000000e+00  -9.5480506467920094e-05 8.3000000000000012e-04 0.0000000000000000e+00  -9.3832139115630926e-05 8.3000000000000012e-04 0.0000000000000000e+00  -9.1916773009113051e-05 8.3000000000000012e-04 0.0000000000000000e+00  -8.9835612449188162e-05 8.3000000000000012e-04 0.0000000000000000e+00  -8.7580560133645208e-05 8.3000000000000012e-04 0.0000000000000000e+00  -8.5179271248488831e-05 8.3000000000000012e-04 0.0000000000000000e+00  -8.2612270788182880e-05 8.3000000000000012e-04 0.0000000000000000e+00  -7.9966831946985965e-05 8.3000000000000012e-04 0.0000000000000000e+00  -7.7245588123116081e-05 8.3000000000000012e-04 0.0000000000000000e+00  -7.4479337696812181e-05 8.3000000000000012e-04 0.0000000000000000e+00  -7.1642887137459592e-05 8.3000000000000012e-04 0.0000000000000000e+00  -6.8801875682148085e-05 8.3000000000000012e-04 0.0000000000000000e+00  -6.5955795270853567e-05 8.3000000000000012e-04 0.0000000000000000e+00  -6.3105282930295809e-05 8.3000000000000012e-04 0.0000000000000000e+00  -6.0264648218377010e-05 8.3000000000000012e-04 0.0000000000000000e+00  -5.7449759690996571e-05 8.3000000000000012e-04 0.0000000000000000e+00  -5.4667664852404647e-05 8.3000000000000012e-04 0.0000000000000000e+00  -5.1893159617069080e-05 8.3000000000000012e-04 0.0000000000000000e+00  -4.9167699629086997e-05 8.3000000000000012e-04 0.0000000000000000e+00  -4.6483530713574170e-05 8.3000000000000012e-04 0.0000000000000000e+00  -4.3844206543342375e-05 8.3000000000000012e-04 0.0000000000000000e+00  -4.1251977478719177e-05 8.3000000000000012e-04 0.0000000000000000e+00  -3.8695849467838913e-05 8.3000000000000012e-04 0.0000000000000000e+00  -3.6186111494710907e-05 8.3000000000000012e-04 0.0000000000000000e+00  -3.3722816795319267e-05 8.3000000000000012e-04 0.0000000000000000e+00  -3.1301749934513852e-05 8.3000000000000012e-04 0.0000000000000000e+00  -2.8923989056809076e-05 8.3000000000000012e-04 0.0000000000000000e+00  -2.6575717003785614e-05 8.3000000000000012e-04 0.0000000000000000e+00  -2.4268762608256274e-05 8.3000000000000012e-04 0.0000000000000000e+00  -2.1993954573573274e-05 8.3000000000000012e-04 0.0000000000000000e+00  -1.9753018373364765e-05 8.3000000000000012e-04 0.0000000000000000e+00  -1.7538963902258260e-05 8.3000000000000012e-04 0.0000000000000000e+00  -1.5352891520092025e-05 8.3000000000000012e-04 0.0000000000000000e+00  -1.3190349973674650e-05 8.3000000000000012e-04 0.0000000000000000e+00  -1.1048406177863657e-05 8.3000000000000012e-04 0.0000000000000000e+00  -8.9250961650709694e-06 8.3000000000000012e-04 0.0000000000000000e+00  -6.8171231385713748e-06 8.3000000000000012e-04 0.0000000000000000e+00  -4.7211847456603272e-06 8.3000000000000012e-04 0.0000000000000000e+00  -2.6334067875121905e-06 8.3000000000000012e-04 0.0000000000000000e+00  -5.5279734571370142e-07 8.3000000000000012e-04 0.0000000000000000e+00  1.5235213940460102e-06 8.3000000000000012e-04 0.0000000000000000e+00  3.6001708240158292e-06 8.3000000000000012e-04 0.0000000000000000e+00  5.6789378882404288e-06 8.3000000000000012e-04 0.0000000000000000e+00  7.7636446764612843e-06 8.3000000000000012e-04 0.0000000000000000e+00  9.8559469303391094e-06 8.3000000000000012e-04 0.0000000000000000e+00  1.1960895404559563e-05 8.3000000000000012e-04 0.0000000000000000e+00  1.4081675201884476e-05 8.3000000000000012e-04 0.0000000000000000e+00  1.6223076227508355e-05 8.3000000000000012e-04 0.0000000000000000e+00  1.8387466986552941e-05 8.3000000000000012e-04 0.0000000000000000e+00  2.0573789059421129e-05 8.3000000000000012e-04 0.0000000000000000e+00  2.2789859894499841e-05 8.3000000000000012e-04 0.0000000000000000e+00  2.5038793880356036e-05 8.3000000000000012e-04 0.0000000000000000e+00  2.7323365245463624e-05 8.3000000000000012e-04 0.0000000000000000e+00  2.9645591208345106e-05 8.3000000000000012e-04 0.0000000000000000e+00  3.2010280780732974e-05 8.3000000000000012e-04 0.0000000000000000e+00  3.4414584938987681e-05 8.3000000000000012e-04 0.0000000000000000e+00  3.6868319747306980e-05 8.3000000000000012e-04 0.0000000000000000e+00  3.9370475937792301e-05 8.3000000000000012e-04 0.0000000000000000e+00  4.1909637284965997e-05 8.3000000000000012e-04 0.0000000000000000e+00  4.4503402313218727e-05 8.3000000000000012e-04 0.0000000000000000e+00  4.7145600762990885e-05 8.3000000000000012e-04 0.0000000000000000e+00  4.9832236365730543e-05 8.3000000000000012e-04 0.0000000000000000e+00  5.2564039225532958e-05 8.3000000000000012e-04 0.0000000000000000e+00  5.5333533883752590e-05 8.3000000000000012e-04 0.0000000000000000e+00  5.8163250148082470e-05 8.3000000000000012e-04 0.0000000000000000e+00  6.0994806445065883e-05 8.3000000000000012e-04 0.0000000000000000e+00  6.3857974954829958e-05 8.3000000000000012e-04 0.0000000000000000e+00  6.6742095097429137e-05 8.3000000000000012e-04 0.0000000000000000e+00  6.9639827306424039e-05 8.3000000000000012e-04 0.0000000000000000e+00  7.2508863414899979e-05 8.3000000000000012e-04 0.0000000000000000e+00  7.5363700533614031e-05 8.3000000000000012e-04 0.0000000000000000e+00  7.8173579711426254e-05 8.3000000000000012e-04 0.0000000000000000e+00  8.0925275897772295e-05 8.3000000000000012e-04 0.0000000000000000e+00  8.3604785283036685e-05 8.3000000000000012e-04 0.0000000000000000e+00  8.6135712442654704e-05 8.3000000000000012e-04 0.0000000000000000e+00  8.8527224608654349e-05 8.3000000000000012e-04 0.0000000000000000e+00  9.0717152318345741e-05 8.3000000000000012e-04 0.0000000000000000e+00  9.2770326930337573e-05 8.3000000000000012e-04 0.0000000000000000e+00  9.4551021944931207e-05 8.3000000000000012e-04 0.0000000000000000e+00  9.6038357934767442e-05 8.3000000000000012e-04 0.0000000000000000e+00  9.7257377273545515e-05 8.3000000000000012e-04 0.0000000000000000e+00  9.8080625508990696e-05 8.3000000000000012e-04 0.0000000000000000e+00  9.8640804768184402e-05 8.3000000000000012e-04 0.0000000000000000e+00  9.8780163670666985e-05 8.3000000000000012e-04 0.0000000000000000e+00  9.8422057303696904e-05 8.3000000000000012e-04 0.0000000000000000e+00  9.7581586201267459e-05 8.3000000000000012e-04 0.0000000000000000e+00  9.6325958052839790e-05 8.3000000000000012e-04 0.0000000000000000e+00  9.4569884884316478e-05 8.3000000000000012e-04 0.0000000000000000e+00  9.2319815081975745e-05 8.3000000000000012e-04 0.0000000000000000e+00  8.9628698857364587e-05 8.3000000000000012e-04 0.0000000000000000e+00  8.6446916696523600e-05 8.3000000000000012e-04 0.0000000000000000e+00  8.2996219973916540e-05 8.3000000000000012e-04 0.0000000000000000e+00  7.8984394168074985e-05 8.3000000000000012e-04 0.0000000000000000e+00  7.4617226397139934e-05 8.3000000000000012e-04 0.0000000000000000e+00  6.9916228735126962e-05 8.3000000000000012e-04 0.0000000000000000e+00  6.4898490383438650e-05 8.3000000000000012e-04 0.0000000000000000e+00  5.9652222040029359e-05 8.3000000000000012e-04 0.0000000000000000e+00  5.4126347334871859e-05 8.3000000000000012e-04 0.0000000000000000e+00  4.8456296660787276e-05 8.3000000000000012e-04 0.0000000000000000e+00  4.2594899522408355e-05 8.3000000000000012e-04 0.0000000000000000e+00  3.6634568948047558e-05 8.3000000000000012e-04 0.0000000000000000e+00  3.0593563598412159e-05 8.3000000000000012e-04 0.0000000000000000e+00  2.4501177842281766e-05 8.3000000000000012e-04 0.0000000000000000e+00  1.8348655047331137e-05 8.3000000000000012e-04 0.0000000000000000e+00  1.2201585475420768e-05 8.3000000000000012e-04 0.0000000000000000e+00  6.0494408407820968e-06 8.3000000000000012e-04 0.0000000000000000e+00  -8.1615089881868010e-08 8.3000000000000012e-04 0.0000000000000000e+00  -6.1843525238418799e-06 8.3000000000000012e-04 0.0000000000000000e+00  -1.2249994461888796e-05 8.3000000000000012e-04 0.0000000000000000e+00  -1.8274207086210364e-05 8.3000000000000012e-04 0.0000000000000000e+00  -2.4251396251987452e-05 8.3000000000000012e-04 0.0000000000000000e+00  -3.0176845713327213e-05 8.3000000000000012e-04 0.0000000000000000e+00  -3.6063821147954134e-05 8.3000000000000012e-04 0.0000000000000000e+00  -4.1896409781092949e-05 8.3000000000000012e-04 0.0000000000000000e+00  -4.7677700797415674e-05 8.3000000000000012e-04 0.0000000000000000e+00  -5.3423589291748435e-05 8.3000000000000012e-04 0.0000000000000000e+00  -5.9121027502418730e-05 8.3000000000000012e-04 0.0000000000000000e+00  -6.4783797582323896e-05 8.3000000000000012e-04 0.0000000000000000e+00  -7.0410988761259336e-05 8.3000000000000012e-04 0.0000000000000000e+00  -7.6007688184364196e-05 8.3000000000000012e-04 0.0000000000000000e+00  -8.1576775893243188e-05 8.3000000000000012e-04 0.0000000000000000e+00  -8.7118828058216168e-05 8.3000000000000012e-04 0.0000000000000000e+00  -9.2643324536852010e-05 8.3000000000000012e-04 0.0000000000000000e+00  -9.8152216862903237e-05 8.3000000000000012e-04 0.0000000000000000e+00  -1.0364935476700289e-04 8.3000000000000012e-04 0.0000000000000000e+00  -1.0913652968135117e-04 8.3000000000000012e-04 0.0000000000000000e+00  -1.1461182055577698e-04 8.3000000000000012e-04 0.0000000000000000e+00  -1.2008536082836445e-04 8.3000000000000012e-04 0.0000000000000000e+00  -1.2555970638162607e-04 8.3000000000000012e-04 0.0000000000000000e+00  -1.3103856419134879e-04 8.3000000000000012e-04 0.0000000000000000e+00  -1.3650922595843354e-04 8.3000000000000012e-04 0.0000000000000000e+00  -1.4199051084783041e-04 8.3000000000000012e-04 0.0000000000000000e+00  -1.4748164065146922e-04 8.3000000000000012e-04 0.0000000000000000e+00  -1.5296983211793042e-04 8.3000000000000012e-04 0.0000000000000000e+00  -1.5847102069618823e-04 8.3000000000000012e-04 0.0000000000000000e+00  -1.6398266084241908e-04 8.3000000000000012e-04 0.0000000000000000e+00  -1.6950637174711170e-04 8.3000000000000012e-04 0.0000000000000000e+00  -1.7503589324336923e-04 8.3000000000000012e-04 0.0000000000000000e+00  -1.8056797718018957e-04 8.3000000000000012e-04 0.0000000000000000e+00  -1.8611070675253580e-04 8.3000000000000012e-04 0.0000000000000000e+00  -1.9166579166096900e-04 8.3000000000000012e-04 0.0000000000000000e+00  -1.9722293680465730e-04 8.3000000000000012e-04 0.0000000000000000e+00  -2.0278359244677144e-04 8.3000000000000012e-04 0.0000000000000000e+00  -2.0834741091053672e-04 8.3000000000000012e-04 0.0000000000000000e+00  -2.1391669215828964e-04 8.3000000000000012e-04 0.0000000000000000e+00  -2.1947841559630788e-04 8.3000000000000012e-04 0.0000000000000000e+00  -2.2504333924934039e-04 8.3000000000000012e-04 0.0000000000000000e+00  -2.3059330538319165e-04 8.3000000000000012e-04 0.0000000000000000e+00  -2.3614258261559930e-04 8.3000000000000012e-04 0.0000000000000000e+00  -2.4168196698799710e-04 8.3000000000000012e-04 0.0000000000000000e+00  -2.4719895794769655e-04 8.3000000000000012e-04 0.0000000000000000e+00  -2.5270098325258099e-04 8.3000000000000012e-04 0.0000000000000000e+00  -2.5818459443456673e-04 8.3000000000000012e-04 0.0000000000000000e+00  -2.6364252184775622e-04 8.3000000000000012e-04 0.0000000000000000e+00  -2.6906821621686122e-04 8.3000000000000012e-04 0.0000000000000000e+00  -2.7447787395192956e-04 8.3000000000000012e-04 0.0000000000000000e+00  -2.7984546180317353e-04 8.3000000000000012e-04 0.0000000000000000e+00  -2.8517438224052484e-04 8.3000000000000012e-04 0.0000000000000000e+00  -2.9046235095125922e-04 8.3000000000000012e-04 0.0000000000000000e+00  -2.9570099031748256e-04 8.3000000000000012e-04 0.0000000000000000e+00  -3.0089772580477631e-04 8.3000000000000012e-04 0.0000000000000000e+00  -3.0605260898536947e-04 8.3000000000000012e-04 0.0000000000000000e+00  -3.1113439600592783e-04 8.3000000000000012e-04 0.0000000000000000e+00  -3.1618226747764456e-04 8.3000000000000012e-04 0.0000000000000000e+00  -3.2110667225554982e-04 8.1509854403273108e-04 0.0000000000000000e+00  -3.2084246894969988e-04 8.0019476369358998e-04 0.0000000000000000e+00  -3.2047011824495799e-04 7.8528886063651245e-04 0.0000000000000000e+00  -3.1989323932340763e-04 7.7038079493745254e-04 0.0000000000000000e+00  -3.1917113952080928e-04 7.5549145175252618e-04 0.0000000000000000e+00  -3.1825199728493776e-04 7.4056806095753876e-04 0.0000000000000000e+00  -3.1718866894091469e-04 7.2567240000970929e-04 0.0000000000000000e+00  -3.1596272232719294e-04 7.1075161360306032e-04 0.0000000000000000e+00  -3.1454973587850685e-04 6.9583242311506909e-04 0.0000000000000000e+00  -3.1296180108291387e-04 6.8093255272052644e-04 0.0000000000000000e+00  -3.1119947957336080e-04 6.6599846048469009e-04 0.0000000000000000e+00  -3.0925509603414036e-04 6.5107070485127491e-04 0.0000000000000000e+00  -3.0713218808856702e-04 6.3612076025492987e-04 0.0000000000000000e+00  -3.0481015718929265e-04 6.2119851651953547e-04 0.0000000000000000e+00  -3.0230776110080361e-04 6.0622369459632146e-04 0.0000000000000000e+00  -2.9959887230745417e-04 5.9122791204441931e-04 0.0000000000000000e+00  -2.9668572809529622e-04 5.7625102095638762e-04 0.0000000000000000e+00  -2.9356626211764886e-04 5.6122298297478458e-04 0.0000000000000000e+00  -2.9022599283382505e-04 5.4620855653099139e-04 0.0000000000000000e+00  -2.8666649362625541e-04 5.3115551019436425e-04 0.0000000000000000e+00  -2.8288758030097031e-04 5.1603455060519898e-04 0.0000000000000000e+00  -2.7886075269266793e-04 5.0094182375803853e-04 0.0000000000000000e+00  -2.7459791567491151e-04 4.8576171708660844e-04 0.0000000000000000e+00  -2.7006762783401039e-04 4.7057118043432620e-04 0.0000000000000000e+00  -2.6529935860229037e-04 4.5529903465995724e-04 0.0000000000000000e+00  -2.6023507988273708e-04 4.4002259463399898e-04 0.0000000000000000e+00  -2.5491823886815158e-04 4.2461212865517277e-04 0.0000000000000000e+00  