<?xml version="1.0"?>
<VTKFile type="UnstructuredGrid"  version="0.1"  >
<UnstructuredGrid>
<Piece  NumberOfPoints="16512" NumberOfCells="32424">
<Points>
<DataArray  type="Float64"  NumberOfComponents="3"  format="ascii">-25 4.9 0  25 4.9 0  25 -4.9 0  -25 -4.9 0  -10 0 0  10 0 0  -24.80000000000034 4.9 0  -24.60000000000068 4.9 0  -24.40000000000101 4.9 0  -24.20000000000135 4.9 0  -24.00000000000169 4.9 0  -23.80000000000203 4.9 0  -23.60000000000237 4.9 0  -23.40000000000271 4.9 0  -23.20000000000304 4.9 0  -23.00000000000338 4.9 0  -22.80000000000372 4.9 0  -22.60000000000406 4.9 0  -22.40000000000439 4.9 0  -22.20000000000473 4.9 0  -22.00000000000507 4.9 0  -21.80000000000541 4.9 0  -21.60000000000575 4.9 0  -21.40000000000608 4.9 0  -21.20000000000642 4.9 0  -21.00000000000676 4.9 0  -20.8000000000071 4.9 0  -20.60000000000744 4.9 0  -20.40000000000777 4.9 0  -20.20000000000811 4.9 0  -20.00000000000845 4.9 0  -19.80000000000879 4.9 0  -19.60000000000912 4.9 0  -19.40000000000946 4.9 0  -19.2000000000098 4.9 0  -19.00000000001039 4.9 0  -18.80000000001108 4.9 0  -18.60000000001231 4.9 0  -18.40000000001371 4.9 0  -18.2000000000154 4.9 0  -18.00000000001716 4.9 0  -17.80000000001892 4.9 0  -17.60000000002067 4.9 0  -17.40000000002243 4.9 0  -17.20000000002419 4.9 0  -17.00000000002595 4.9 0  -16.80000000002771 4.9 0  -16.60000000002947 4.9 0  -16.40000000003123 4.9 0  -16.20000000003299 4.9 0  -16.00000000003472 4.9 0  -15.80000000003612 4.9 0  -15.60000000003748 4.9 0  -15.40000000003853 4.9 0  -15.20000000003958 4.9 0  -15.00000000004063 4.9 0  -14.80000000004168 4.9 0  -14.60000000004273 4.9 0  -14.40000000004377 4.9 0  -14.20000000004482 4.9 0  -14.00000000004587 4.9 0  -13.80000000004692 4.9 0  -13.60000000004797 4.9 0  -13.40000000004902 4.9 0  -13.20000000005007 4.9 0  -13.00000000005111 4.9 0  -12.80000000005216 4.9 0  -12.60000000005321 4.9 0  -12.40000000005426 4.9 0  -12.20000000005531 4.9 0  -12.00000000005636 4.9 0  -11.80000000005741 4.9 0  -11.60000000005846 4.9 0  -11.4000000000595 4.9 0  -11.20000000006055 4.9 0  -11.0000000000616 4.9 0  -10.80000000006265 4.9 0  -10.6000000000637 4.9 0  -10.40000000006475 4.9 0  -10.2000000000658 4.9 0  -10.00000000006684 4.9 0  -9.800000000067891 4.9 0  -9.60000000006894 4.9 0  -9.400000000069989 4.9 0  -9.200000000070727 4.9 0  -9.00000000007142 4.9 0  -8.800000000071787 4.9 0  -8.600000000072125 4.9 0  -8.400000000072467 4.9 0  -8.200000000072805 4.9 0  -8.000000000073143 4.9 0  -7.800000000073481 4.9 0  -7.60000000007382 4.9 0  -7.400000000074154 4.9 0  -7.200000000074493 4.9 0  -7.000000000074831 4.9 0  -6.800000000075173 4.9 0  -6.600000000075511 4.9 0  -6.400000000075849 4.9 0  -6.200000000076187 4.9 0  -6.000000000076525 4.9 0  -5.800000000076867 4.9 0  -5.600000000077205 4.9 0  -5.400000000077544 4.9 0  -5.200000000077882 4.9 0  -5.00000000007822 4.9 0  -4.800000000078558 4.9 0  -4.600000000078897 4.9 0  -4.400000000079235 4.9 0  -4.200000000079573 4.9 0  -4.000000000079908 4.9 0  -3.800000000080246 4.9 0  -3.600000000080588 4.9 0  -3.400000000080926 4.9 0  -3.200000000081264 4.9 0  -3.000000000081606 4.9 0  -2.800000000081944 4.9 0  -2.600000000082282 4.9 0  -2.40000000008262 4.9 0  -2.200000000082959 4.9 0  -2.000000000083297 4.9 0  -1.800000000083635 4.9 0  -1.600000000083973 4.9 0  -1.400000000084312 4.9 0  -1.20000000008465 4.9 0  -1.000000000084988 4.9 0  -0.8000000000853262 4.9 0  -0.6000000000856645 4.9 0  -0.4000000000860027 4.9 0  -0.2000000000863409 4.9 0  -8.667910833537462e-11 4.9 0  0.1999999999129827 4.9 0  0.3999999999126409 4.9 0  0.5999999999123027 4.9 0  0.7999999999119716 4.9 0  0.9999999999116262 4.9 0  1.199999999911295 4.9 0  1.39999999991095 4.9 0  1.599999999910619 4.9 0  1.799999999910273 4.9 0  1.999999999909939 4.9 0  2.199999999909597 4.9 0  2.399999999909262 4.9 0  2.599999999908921 4.9 0  2.799999999908582 4.9 0  2.999999999908244 4.9 0  3.199999999907906 4.9 0  3.399999999907564 4.9 0  3.599999999907226 4.9 0  3.799999999906888 4.9 0  3.999999999906549 4.9 0  4.199999999906218 4.9 0  4.399999999905873 4.9 0  4.599999999905542 4.9 0  4.799999999905197 4.9 0  4.999999999904865 4.9 0  5.19999999990452 4.9 0  5.399999999904182 4.9 0  5.599999999903844 4.9 0  5.799999999903505 4.9 0  5.999999999903167 4.9 0  6.199999999902829 4.9 0  6.399999999902491 4.9 0  6.599999999902153 4.9 0  6.799999999902379 4.9 0  6.999999999902752 4.9 0  7.199999999903724 4.9 0  7.399999999904807 4.9 0  7.59999999990589 4.9 0  7.799999999906966 4.9 0  7.999999999908056 4.9 0  8.199999999909132 4.9 0  8.399999999910214 4.9 0  8.59999999991129 4.9 0  8.79999999991238 4.9 0  8.999999999913456 4.9 0  9.199999999914539 4.9 0  9.399999999915622 4.9 0  9.599999999916704 4.9 0  9.79999999991778 4.9 0  9.99999999991887 4.9 0  10.19999999991995 4.9 0  10.39999999992103 4.9 0  10.59999999992212 4.9 0  10.79999999992319 4.9 0  10.99999999992428 4.9 0  11.19999999992536 4.9 0  11.39999999992644 4.9 0  11.59999999992752 4.9 0  11.7999999999286 4.9 0  11.99999999992968 4.9 0  12.19999999993077 4.9 0  12.39999999993184 4.9 0  12.59999999993293 4.9 0  12.79999999993401 4.9 0  12.99999999993509 4.9 0  13.19999999993617 4.9 0  13.39999999993726 4.9 0  13.59999999993834 4.9 0  13.79999999993942 4.9 0  13.99999999994051 4.9 0  14.19999999994158 4.9 0  14.39999999994266 4.9 0  14.59999999994375 4.9 0  14.79999999994483 4.9 0  14.99999999994591 4.9 0  15.199999999947 4.9 0  15.39999999994807 4.9 0  15.59999999994915 4.9 0  15.79999999995024 4.9 0  15.99999999995132 4.9 0  16.1999999999524 4.9 0  16.39999999995349 4.9 0  16.59999999995456 4.9 0  16.79999999995565 4.9 0  16.99999999995674 4.9 0  17.19999999995781 4.9 0  17.39999999995889 4.9 0  17.59999999995997 4.9 0  17.79999999996106 4.9 0  17.99999999996214 4.9 0  18.19999999996322 4.9 0  18.3999999999643 4.9 0  18.59999999996538 4.9 0  18.79999999996646 4.9 0  18.99999999996755 4.9 0  19.19999999996863 4.9 0  19.39999999996971 4.9 0  19.59999999997079 4.9 0  19.79999999997187 4.9 0  19.99999999997296 4.9 0  20.19999999997404 4.9 0  20.39999999997512 4.9 0  20.5999999999762 4.9 0  20.79999999997728 4.9 0  20.99999999997836 4.9 0  21.19999999997945 4.9 0  21.39999999998052 4.9 0  21.59999999998161 4.9 0  21.79999999998269 4.9 0  21.99999999998377 4.9 0  22.19999999998485 4.9 0  22.39999999998594 4.9 0  22.59999999998701 4.9 0  22.7999999999881 4.9 0  22.99999999998919 4.9 0  23.19999999999026 4.9 0  23.39999999999135 4.9 0  23.59999999999243 4.9 0  23.79999999999351 4.9 0  23.99999999999459 4.9 0  24.19999999999568 4.9 0  24.39999999999675 4.9 0  24.59999999999783 4.9 0  24.79999999999892 4.9 0  25 4.700000000000415 0  25 4.500000000000868 0  25 4.300000000001562 0  25 4.100000000001831 0  25 3.900000000002072 0  25 3.700000000002459 0  25 3.500000000003038 0  25 3.300000000003653 0  25 3.100000000004294 0  25 2.900000000004838 0  25 2.700000000005293 0  25 2.500000000005957 0  25 2.300000000006508 0  25 2.100000000007153 0  25 1.900000000007722 0  25 1.700000000008417 0  25 1.500000000008938 0  25 1.30000000000963 0  25 1.100000000010154 0  25 0.9000000000108268 0  25 0.7000000000114559 0  25 0.5000000000119762 0  25 0.3000000000126564 0  25 0.1000000000131926 0  25 -0.09999999998679243 0  25 -0.2999999999874587 0  25 -0.4999999999878586 0  25 -0.6999999999884441 0  25 -0.899999999988804 0  25 -1.099999999989427 0  25 -1.299999999989749 0  25 -1.499999999990411 0  25 -1.69999999999073 0  25 -1.899999999991396 0  25 -2.099999999991715 0  25 -2.299999999992381 0  25 -2.499999999993047 0  25 -2.699999999993714 0  25 -2.899999999994227 0  25 -3.099999999994698 0  25 -3.299999999994673 0  25 -3.499999999995339 0  25 -3.699999999996004 0  25 -3.89999999999667 0  25 -4.099999999997335 0  25 -4.299999999998002 0  25 -4.499999999998668 0  25 -4.699999999999335 0  24.80000000000034 -4.9 0  24.60000000000068 -4.9 0  24.40000000000101 -4.9 0  24.20000000000135 -4.9 0  24.00000000000169 -4.9 0  23.80000000000203 -4.9 0  23.60000000000237 -4.9 0  23.40000000000271 -4.9 0  23.20000000000304 -4.9 0  23.00000000000338 -4.9 0  22.80000000000372 -4.9 0  22.60000000000406 -4.9 0  22.40000000000439 -4.9 0  22.20000000000473 -4.9 0  22.00000000000507 -4.9 0  21.80000000000541 -4.9 0  21.60000000000575 -4.9 0  21.40000000000608 -4.9 0  21.20000000000642 -4.9 0  21.00000000000676 -4.9 0  20.8000000000071 -4.9 0  20.60000000000744 -4.9 0  20.40000000000777 -4.9 0  20.20000000000811 -4.9 0  20.00000000000845 -4.9 0  19.80000000000879 -4.9 0  19.60000000000912 -4.9 0  19.40000000000946 -4.9 0  19.2000000000098 -4.9 0  19.00000000001039 -4.9 0  18.80000000001108 -4.9 0  18.60000000001231 -4.9 0  18.40000000001371 -4.9 0  18.2000000000154 -4.9 0  18.00000000001716 -4.9 0  17.80000000001892 -4.9 0  17.60000000002067 -4.9 0  17.40000000002243 -4.9 0  17.20000000002419 -4.9 0  17.00000000002595 -4.9 0  16.80000000002771 -4.9 0  16.60000000002947 -4.9 0  16.40000000003123 -4.9 0  16.20000000003299 -4.9 0  16.00000000003472 -4.9 0  15.80000000003612 -4.9 0  15.60000000003748 -4.9 0  15.40000000003853 -4.9 0  15.20000000003958 -4.9 0  15.00000000004063 -4.9 0  14.80000000004168 -4.9 0  14.60000000004273 -4.9 0  14.40000000004377 -4.9 0  14.20000000004482 -4.9 0  14.00000000004587 -4.9 0  13.80000000004692 -4.9 0  13.60000000004797 -4.9 0  13.40000000004902 -4.9 0  13.20000000005007 -4.9 0  13.00000000005111 -4.9 0  12.80000000005216 -4.9 0  12.60000000005321 -4.9 0  12.40000000005426 -4.9 0  12.20000000005531 -4.9 0  12.00000000005636 -4.9 0  11.80000000005741 -4.9 0  11.60000000005846 -4.9 0  11.4000000000595 -4.9 0  11.20000000006055 -4.9 0  11.0000000000616 -4.9 0  10.80000000006265 -4.9 0  10.6000000000637 -4.9 0  10.40000000006475 -4.9 0  10.2000000000658 -4.9 0  10.00000000006684 -4.9 0  9.800000000067891 -4.9 0  9.60000000006894 -4.9 0  9.400000000069989 -4.9 0  9.200000000070727 -4.9 0  9.00000000007142 -4.9 0  8.800000000071787 -4.9 0  8.600000000072125 -4.9 0  8.400000000072467 -4.9 0  8.200000000072805 -4.9 0  8.000000000073143 -4.9 
[...]
<PointData  Vectors="f_7"> 
<DataArray  type="Float64"  Name="f_7"  NumberOfComponents="3" format="ascii">1.6309588979952194e-04 3.8000000000000002e-04 0.0000000000000000e+00  -1.6324247706510882e-04 3.8000000000000002e-04 0.0000000000000000e+00  0.0000000000000000e+00 0.0000000000000000e+00 0.0000000000000000e+00  0.0000000000000000e+00 0.0000000000000000e+00 0.0000000000000000e+00  2.9141112099403830e-05 1.9034827983965499e-04 0.0000000000000000e+00  -2.8538637173819197e-05 1.8717504286710365e-04 0.0000000000000000e+00  1.6086783004246548e-04 3.8000000000000002e-04 0.0000000000000000e+00  1.5862333382302235e-04 3.8000000000000002e-04 0.0000000000000000e+00  1.5636497263659860e-04 3.8000000000000002e-04 0.0000000000000000e+00  1.5405904111851434e-04 3.8000000000000002e-04 0.0000000000000000e+00  1.5174274930537194e-04 3.8000000000000002e-04 0.0000000000000000e+00  1.4939210805505208e-04 3.8000000000000002e-04 0.0000000000000000e+00  1.4702770460526456e-04 3.8000000000000002e-04 0.0000000000000000e+00  1.4463574941815885e-04 3.8000000000000002e-04 0.0000000000000000e+00  1.4223845674398439e-04 3.8000000000000002e-04 0.0000000000000000e+00  1.3981830496899938e-04 3.8000000000000002e-04 0.0000000000000000e+00  1.3738613940316442e-04 3.8000000000000002e-04 0.0000000000000000e+00  1.3495414550575014e-04 3.8000000000000002e-04 0.0000000000000000e+00  1.3249562617784967e-04 3.8000000000000002e-04 0.0000000000000000e+00  1.3004050461963771e-04 3.8000000000000002e-04 0.0000000000000000e+00  1.2758396574651465e-04 3.8000000000000002e-04 0.0000000000000000e+00  1.2512806409136976e-04 3.8000000000000002e-04 0.0000000000000000e+00  1.2265554881601810e-04 3.8000000000000002e-04 0.0000000000000000e+00  1.2019298891109717e-04 3.8000000000000002e-04 0.0000000000000000e+00  1.1773866124940136e-04 3.8000000000000002e-04 0.0000000000000000e+00  1.1527637984817419e-04 3.8000000000000002e-04 0.0000000000000000e+00  1.1282444389185681e-04 3.8000000000000002e-04 0.0000000000000000e+00  1.1038058094931229e-04 3.8000000000000002e-04 0.0000000000000000e+00  1.0794890991347156e-04 3.8000000000000002e-04 0.0000000000000000e+00  1.0553075665608058e-04 3.8000000000000002e-04 0.0000000000000000e+00  1.0310751671932264e-04 3.8000000000000002e-04 0.0000000000000000e+00  1.0070157967547513e-04 3.8000000000000002e-04 0.0000000000000000e+00  9.8311482750633306e-05 3.8000000000000002e-04 0.0000000000000000e+00  9.5931656101196457e-05 3.8000000000000002e-04 0.0000000000000000e+00  9.3565636311266525e-05 3.8000000000000002e-04 0.0000000000000000e+00  9.1214916587769603e-05 3.8000000000000002e-04 0.0000000000000000e+00  8.8875581311828188e-05 3.8000000000000002e-04 0.0000000000000000e+00  8.6551398496900631e-05 3.8000000000000002e-04 0.0000000000000000e+00  8.4242322621576180e-05 3.8000000000000002e-04 0.0000000000000000e+00  8.1950772723773856e-05 3.8000000000000002e-04 0.0000000000000000e+00  7.9663882856827805e-05 3.8000000000000002e-04 0.0000000000000000e+00  7.7395901932278483e-05 3.8000000000000002e-04 0.0000000000000000e+00  7.5139688897452769e-05 3.8000000000000002e-04 0.0000000000000000e+00  7.2898966073087662e-05 3.8000000000000002e-04 0.0000000000000000e+00  7.0665662120511063e-05 3.8000000000000002e-04 0.0000000000000000e+00  6.8445690705231494e-05 3.8000000000000002e-04 0.0000000000000000e+00  6.6237769603850642e-05 3.8000000000000002e-04 0.0000000000000000e+00  6.4039182009441618e-05 3.8000000000000002e-04 0.0000000000000000e+00  6.1848891100034956e-05 3.8000000000000002e-04 0.0000000000000000e+00  5.9666115496282705e-05 3.8000000000000002e-04 0.0000000000000000e+00  5.7489322325300319e-05 3.8000000000000002e-04 0.0000000000000000e+00  5.5318519727839244e-05 3.8000000000000002e-04 0.0000000000000000e+00  5.3152569860454596e-05 3.8000000000000002e-04 0.0000000000000000e+00  5.0989742426957181e-05 3.8000000000000002e-04 0.0000000000000000e+00  4.8829542078130670e-05 3.8000000000000002e-04 0.0000000000000000e+00  4.6671543181556470e-05 3.8000000000000002e-04 0.0000000000000000e+00  4.4513605752452429e-05 3.8000000000000002e-04 0.0000000000000000e+00  4.2354616143855542e-05 3.8000000000000002e-04 0.0000000000000000e+00  4.0195827363993381e-05 3.8000000000000002e-04 0.0000000000000000e+00  3.8034529604328208e-05 3.8000000000000002e-04 0.0000000000000000e+00  3.5874444462798796e-05 3.8000000000000002e-04 0.0000000000000000e+00  3.3713301975348644e-05 3.8000000000000002e-04 0.0000000000000000e+00  3.1551947374925995e-05 3.8000000000000002e-04 0.0000000000000000e+00  2.9391391574154697e-05 3.8000000000000002e-04 0.0000000000000000e+00  2.7235642925493788e-05 3.8000000000000002e-04 0.0000000000000000e+00  2.5084267438543031e-05 3.8000000000000002e-04 0.0000000000000000e+00  2.2949718221924981e-05 3.8000000000000002e-04 0.0000000000000000e+00  2.0827659998897825e-05 3.8000000000000002e-04 0.0000000000000000e+00  1.8725260102340576e-05 3.8000000000000002e-04 0.0000000000000000e+00  1.6645829565974461e-05 3.8000000000000002e-04 0.0000000000000000e+00  1.4598669643622003e-05 3.8000000000000002e-04 0.0000000000000000e+00  1.2599042649602597e-05 3.8000000000000002e-04 0.0000000000000000e+00  1.0651518823137503e-05 3.8000000000000002e-04 0.0000000000000000e+00  8.7779810874530950e-06 3.8000000000000002e-04 0.0000000000000000e+00  6.9635148094874134e-06 3.8000000000000002e-04 0.0000000000000000e+00  5.2127231449721145e-06 3.8000000000000002e-04 0.0000000000000000e+00  3.5626108830811688e-06 3.8000000000000002e-04 0.0000000000000000e+00  2.0301985621699018e-06 3.8000000000000002e-04 0.0000000000000000e+00  6.0361940588243131e-07 3.8000000000000002e-04 0.0000000000000000e+00  -7.2820323831734551e-07 3.8000000000000002e-04 0.0000000000000000e+00  -1.9127598652678387e-06 3.8000000000000002e-04 0.0000000000000000e+00  -2.9900958368120904e-06 3.8000000000000002e-04 0.0000000000000000e+00  -3.9347455169542107e-06 3.8000000000000002e-04 0.0000000000000000e+00  -4.7386099251994391e-06 3.8000000000000002e-04 0.0000000000000000e+00  -5.4215175516985798e-06 3.8000000000000002e-04 0.0000000000000000e+00  -5.9895978412571739e-06 3.8000000000000002e-04 0.0000000000000000e+00  -6.4366990440211860e-06 3.8000000000000002e-04 0.0000000000000000e+00  -6.7681843845894256e-06 3.8000000000000002e-04 0.0000000000000000e+00  -6.9907698591077859e-06 3.8000000000000002e-04 0.0000000000000000e+00  -7.1159882737147089e-06 3.8000000000000002e-04 0.0000000000000000e+00  -7.1649951199850627e-06 3.8000000000000002e-04 0.0000000000000000e+00  -7.1424473109881794e-06 3.8000000000000002e-04 0.0000000000000000e+00  -7.0437747656906936e-06 3.8000000000000002e-04 0.0000000000000000e+00  -6.8828748889209494e-06 3.8000000000000002e-04 0.0000000000000000e+00  -6.6844576832399018e-06 3.8000000000000002e-04 0.0000000000000000e+00  -6.4478250082591612e-06 3.8000000000000002e-04 0.0000000000000000e+00  -6.1813391230931289e-06 3.8000000000000002e-04 0.0000000000000000e+00  -5.8824541906050950e-06 3.8000000000000002e-04 0.0000000000000000e+00  -5.5713110118849018e-06 3.8000000000000002e-04 0.0000000000000000e+00  -5.2497013045179314e-06 3.8000000000000002e-04 0.0000000000000000e+00  -4.9250778459450775e-06 3.8000000000000002e-04 0.0000000000000000e+00  -4.5946143108260456e-06 3.8000000000000002e-04 0.0000000000000000e+00  -4.2703964408508510e-06 3.8000000000000002e-04 0.0000000000000000e+00  -3.9538409227798541e-06 3.8000000000000002e-04 0.0000000000000000e+00  -3.6464600532146491e-06 3.8000000000000002e-04 0.0000000000000000e+00  -3.3509421100179406e-06 3.8000000000000002e-04 0.0000000000000000e+00  -3.0700156899190594e-06 3.8000000000000002e-04 0.0000000000000000e+00  -2.8057564621787525e-06 3.8000000000000002e-04 0.0000000000000000e+00  -2.5540821002763870e-06 3.8000000000000002e-04 0.0000000000000000e+00  -2.3211465992232659e-06 3.8000000000000002e-04 0.0000000000000000e+00  -2.1062273143024492e-06 3.8000000000000002e-04 0.0000000000000000e+00  -1.9103496391536068e-06 3.8000000000000002e-04 0.0000000000000000e+00  -1.7321652547906551e-06 3.8000000000000002e-04 0.0000000000000000e+00  -1.5709069891066727e-06 3.8000000000000002e-04 0.0000000000000000e+00  -1.4258775613627152e-06 3.8000000000000002e-04 0.0000000000000000e+00  -1.2980666180917383e-06 3.8000000000000002e-04 0.0000000000000000e+00  -1.1855117873054547e-06 3.8000000000000002e-04 0.0000000000000000e+00  -1.0872283717417426e-06 3.8000000000000002e-04 0.0000000000000000e+00  -1.0007620479093560e-06 3.8000000000000002e-04 0.0000000000000000e+00  -9.2700912236184012e-07 3.8000000000000002e-04 0.0000000000000000e+00  -8.6283427186724393e-07 3.8000000000000002e-04 0.0000000000000000e+00  -8.0869856992165579e-07 3.8000000000000002e-04 0.0000000000000000e+00  -7.6172672378185112e-07 3.8000000000000002e-04 0.0000000000000000e+00  -7.2170887526104255e-07 3.8000000000000002e-04 0.0000000000000000e+00  -6.8690504418971253e-07 3.8000000000000002e-04 0.0000000000000000e+00  -6.5592482505756710e-07 3.8000000000000002e-04 0.0000000000000000e+00  -6.2775434956132931e-07 3.8000000000000002e-04 0.0000000000000000e+00  -6.0103729584066392e-07 3.8000000000000002e-04 0.0000000000000000e+00  -5.7398569321729912e-07 3.8000000000000002e-04 0.0000000000000000e+00  -5.4609558754264438e-07 3.8000000000000002e-04 0.0000000000000000e+00  -5.1622553041220699e-07 3.8000000000000002e-04 0.0000000000000000e+00  -4.8344585077618127e-07 3.8000000000000002e-04 0.0000000000000000e+00  -4.4542322554521528e-07 3.8000000000000002e-04 0.0000000000000000e+00  -4.0288945091643183e-07 3.8000000000000002e-04 0.0000000000000000e+00  -3.5451819779428466e-07 3.8000000000000002e-04 0.0000000000000000e+00  -2.9830613749582015e-07 3.8000000000000002e-04 0.0000000000000000e+00  -2.3434669107334026e-07 3.8000000000000002e-04 0.0000000000000000e+00  -1.6152724983126465e-07 3.8000000000000002e-04 0.0000000000000000e+00  -7.8619921658823130e-08 3.8000000000000002e-04 0.0000000000000000e+00  1.3683525283176411e-08 3.8000000000000002e-04 0.0000000000000000e+00  1.1618320087508056e-07 3.8000000000000002e-04 0.0000000000000000e+00  2.2941204093048827e-07 3.8000000000000002e-04 0.0000000000000000e+00  3.5438880478611147e-07 3.8000000000000002e-04 0.0000000000000000e+00  4.9096743115563019e-07 3.8000000000000002e-04 0.0000000000000000e+00  6.3968970220409038e-07 3.8000000000000002e-04 0.0000000000000000e+00  8.0115260673331123e-07 3.8000000000000002e-04 0.0000000000000000e+00  9.7504558235718675e-07 3.8000000000000002e-04 0.0000000000000000e+00  1.1630393582723192e-06 3.8000000000000002e-04 0.0000000000000000e+00  1.3645262161573858e-06 3.8000000000000002e-04 0.0000000000000000e+00  1.5784061449643697e-06 3.8000000000000002e-04 0.0000000000000000e+00  1.8073763369293594e-06 3.8000000000000002e-04 0.0000000000000000e+00  2.0502807966013128e-06 3.8000000000000002e-04 0.0000000000000000e+00  2.3078450460022996e-06 3.8000000000000002e-04 0.0000000000000000e+00  2.5794544746581754e-06 3.8000000000000002e-04 0.0000000000000000e+00  2.8634538023463019e-06 3.8000000000000002e-04 0.0000000000000000e+00  3.1658888393833336e-06 3.8000000000000002e-04 0.0000000000000000e+00  3.4732466668251474e-06 3.8000000000000002e-04 0.0000000000000000e+00  3.7926325727085349e-06 3.8000000000000002e-04 0.0000000000000000e+00  4.1211728485984002e-06 3.8000000000000002e-04 0.0000000000000000e+00  4.4566422099409553e-06 3.8000000000000002e-04 0.0000000000000000e+00  4.7905253437184494e-06 3.8000000000000002e-04 0.0000000000000000e+00  5.1243724613482224e-06 3.8000000000000002e-04 0.0000000000000000e+00  5.4511895821945212e-06 3.8000000000000002e-04 0.0000000000000000e+00  5.7673033898205633e-06 3.8000000000000002e-04 0.0000000000000000e+00  6.0687802585418686e-06 3.8000000000000002e-04 0.0000000000000000e+00  6.3372954088363279e-06 3.8000000000000002e-04 0.0000000000000000e+00  6.5738532494571420e-06 3.8000000000000002e-04 0.0000000000000000e+00  6.7627627426790820e-06 3.8000000000000002e-04 0.0000000000000000e+00  6.9181454280277707e-06 3.8000000000000002e-04 0.0000000000000000e+00  7.0070433182567600e-06 3.8000000000000002e-04 0.0000000000000000e+00  7.0230854427555221e-06 3.8000000000000002e-04 0.0000000000000000e+00  6.9713451208026813e-06 3.8000000000000002e-04 0.0000000000000000e+00  6.8192373037243980e-06 3.8000000000000002e-04 0.0000000000000000e+00  6.5987278627876039e-06 3.8000000000000002e-04 0.0000000000000000e+00  6.2695892606085988e-06 3.8000000000000002e-04 0.0000000000000000e+00  5.8101454552358257e-06 3.8000000000000002e-04 0.0000000000000000e+00  5.2256376127331672e-06 3.8000000000000002e-04 0.0000000000000000e+00  4.5294135894235709e-06 3.8000000000000002e-04 0.0000000000000000e+00  3.6989454618884799e-06 3.8000000000000002e-04 0.0000000000000000e+00  2.7348308470313286e-06 3.8000000000000002e-04 0.0000000000000000e+00  1.6488265570934242e-06 3.8000000000000002e-04 0.0000000000000000e+00  4.2944007809450291e-07 3.8000000000000002e-04 0.0000000000000000e+00  -8.6845336525201703e-07 3.8000000000000002e-04 0.0000000000000000e+00  -2.3189182925952149e-06 3.8000000000000002e-04 0.0000000000000000e+00  -3.8718725607183463e-06 3.8000000000000002e-04 0.0000000000000000e+00  -5.5213674495212846e-06 3.8000000000000002e-04 0.0000000000000000e+00  -7.2638710222864447e-06 3.8000000000000002e-04 0.0000000000000000e+00  -9.0768683945474050e-06 3.8000000000000002e-04 0.0000000000000000e+00  -1.0971589154667366e-05 3.8000000000000002e-04 0.0000000000000000e+00  -1.2915138507027751e-05 3.8000000000000002e-04 0.0000000000000000e+00  -1.4919575153125432e-05 3.8000000000000002e-04 0.0000000000000000e+00  -1.6960090402247280e-05 3.8000000000000002e-04 0.0000000000000000e+00  -1.9032313616318736e-05 3.8000000000000002e-04 0.0000000000000000e+00  -2.1129541019742488e-05 3.8000000000000002e-04 0.0000000000000000e+00  -2.3252001148603352e-05 3.8000000000000002e-04 0.0000000000000000e+00  -2.5384602032915080e-05 3.8000000000000002e-04 0.0000000000000000e+00  -2.7529505682424886e-05 3.8000000000000002e-04 0.0000000000000000e+00  -2.9679707554276360e-05 3.8000000000000002e-04 0.0000000000000000e+00  -3.1833782463927444e-05 3.8000000000000002e-04 0.0000000000000000e+00  -3.3989771319732479e-05 3.8000000000000002e-04 0.0000000000000000e+00  -3.6145947558347596e-05 3.8000000000000002e-04 0.0000000000000000e+00  -3.8301611812097259e-05 3.8000000000000002e-04 0.0000000000000000e+00  -4.0455901965761701e-05 3.8000000000000002e-04 0.0000000000000000e+00  -4.2609645447303126e-05 3.8000000000000002e-04 0.0000000000000000e+00  -4.4762996910819462e-05 3.8000000000000002e-04 0.0000000000000000e+00  -4.6916839416630493e-05 3.8000000000000002e-04 0.0000000000000000e+00  -4.9069973166613287e-05 3.8000000000000002e-04 0.0000000000000000e+00  -5.1224420423571895e-05 3.8000000000000002e-04 0.0000000000000000e+00  -5.3381993372713686e-05 3.8000000000000002e-04 0.0000000000000000e+00  -5.5542946807346884e-05 3.8000000000000002e-04 0.0000000000000000e+00  -5.7709310406240248e-05 3.8000000000000002e-04 0.0000000000000000e+00  -5.9881445839614540e-05 3.8000000000000002e-04 0.0000000000000000e+00  -6.2059537431335298e-05 3.8000000000000002e-04 0.0000000000000000e+00  -6.4246102983480516e-05 3.8000000000000002e-04 0.0000000000000000e+00  -6.6442245694129442e-05 3.8000000000000002e-04 0.0000000000000000e+00  -6.8649414239397842e-05 3.8000000000000002e-04 0.0000000000000000e+00  -7.0867030653511397e-05 3.8000000000000002e-04 0.0000000000000000e+00  -7.3091512052250585e-05 3.8000000000000002e-04 0.0000000000000000e+00  -7.5331068134784626e-05 3.8000000000000002e-04 0.0000000000000000e+00  -7.7584143717359229e-05 3.8000000000000002e-04 0.0000000000000000e+00  -7.9853233465084514e-05 3.8000000000000002e-04 0.0000000000000000e+00  -8.2128108780235576e-05 3.8000000000000002e-04 0.0000000000000000e+00  -8.4421594906490942e-05 3.8000000000000002e-04 0.0000000000000000e+00  -8.6732352154414579e-05 3.8000000000000002e-04 0.0000000000000000e+00  -8.9051256120120336e-05 3.8000000000000002e-04 0.0000000000000000e+00  -9.1387178876245655e-05 3.8000000000000002e-04 0.0000000000000000e+00  -9.3737896089245978e-05 3.8000000000000002e-04 0.0000000000000000e+00  -9.6103998833855359e-05 3.8000000000000002e-04 0.0000000000000000e+00  -9.8481987930336789e-05 3.8000000000000002e-04 0.0000000000000000e+00  -1.0087037945981393e-04 3.8000000000000002e-04 0.0000000000000000e+00  -1.0327175420462706e-04 3.8000000000000002e-04 0.0000000000000000e+00  -1.0568710346678923e-04 3.8000000000000002e-04 0.0000000000000000e+00  -1.0811151603787538e-04 3.8000000000000002e-04 0.0000000000000000e+00  -1.1054465918426802e-04 3.8000000000000002e-04 0.0000000000000000e+00  -1.1298654219737538e-04 3.8000000000000002e-04 0.0000000000000000e+00  -1.1543736048030962e-04 3.8000000000000002e-04 0.0000000000000000e+00  -1.1789065516090122e-04 3.8000000000000002e-04 0.0000000000000000e+00  -1.2035190935373485e-04 3.8000000000000002e-04 0.0000000000000000e+00  -1.2281058043671551e-04 3.8000000000000002e-04 0.0000000000000000e+00  -1.2527466984344992e-04 3.8000000000000002e-04 0.0000000000000000e+00  -1.2773886907869764e-04 3.8000000000000002e-04 0.0000000000000000e+00  -1.3019644596454636e-04 3.8000000000000002e-04 0.0000000000000000e+00  -1.3265087894567733e-04 3.8000000000000002e-04 0.0000000000000000e+00  -1.3510001721917314e-04 3.8000000000000002e-04 0.0000000000000000e+00  -1.3753988160207192e-04 3.8000000000000002e-04 0.0000000000000000e+00  -1.3996680422722244e-04 3.8000000000000002e-04 0.0000000000000000e+00  -1.4238874316078632e-04 3.8000000000000002e-04 0.0000000000000000e+00  -1.4479184287747370e-04 3.8000000000000002e-04 0.0000000000000000e+00  -1.4717740927739211e-04 3.8000000000000002e-04 0.0000000000000000e+00  -1.4954385641013484e-04 3.8000000000000002e-04 0.0000000000000000e+00  -1.5188614321766156e-04 3.8000000000000002e-04 0.0000000000000000e+00  -1.5420780287727086e-04 3.8000000000000002e-04 0.0000000000000000e+00  -1.5650861913411068e-04 3.8000000000000002e-04 0.0000000000000000e+00  -1.5877021283095314e-04 3.8000000000000002e-04 0.0000000000000000e+00  -1.6101394602847241e-04 3.8000000000000002e-04 0.0000000000000000e+00  -1.6318868977392831e-04 3.7340239212480420e-04 0.0000000000000000e+00  -1.6303940684049887e-04 3.6680282418758255e-04 0.0000000000000000e+00  -1.6282879565231290e-04 3.6020105833842544e-04 0.0000000000000000e+00  -1.6250321847811777e-04 3.5359665837946051e-04 0.0000000000000000e+00  -1.6209604609077109e-04 3.4700049401506082e-04 0.0000000000000000e+00  -1.6157809855443637e-04 3.4038317074666625e-04 0.0000000000000000e+00  -1.6097955490100503e-04 3.3377833042355843e-04 0.0000000000000000e+00  -1.6029075644925325e-04 3.2715587857782522e-04 0.0000000000000000e+00  -1.5949834658788797e-04 3.2053047005250448e-04 0.0000000000000000e+00  -1.5860841974722108e-04 3.1391122954115122e-04 0.0000000000000000e+00  -1.5762426055572043e-04 3.0726838631514808e-04 0.0000000000000000e+00  -1.5653918793389533e-04 3.0062394934628070e-04 0.0000000000000000e+00  -1.5535884785101785e-04 2.9396184651872602e-04 0.0000000000000000e+00  -1.5406990095368319e-04 2.8730843672808399e-04 0.0000000000000000e+00  -1.5268488906755478e-04 2.8062092112615341e-04 0.0000000000000000e+00  -1.5119052558884273e-04 2.7391559838869391e-04 0.0000000000000000e+00  -1.4958684633840311e-04 2.6721300468528084e-04 0.0000000000000000e+00  -1.4787681797950210e-04 2.6047620316954672e-04 0.0000000000000000e+00  -1.4604974208600336e-04 2.5373882392297796e-04 0.0000000000000000e+00  -1.4410922356501571e-04 2.4697276026446985e-04 0.0000000000000000e+00  -1.4205796031999414e-04 2.4016371808632250e-04 0.0000000000000000e+00  -1.3987729439708142e-04 2.3336046487063428e-04 0.0000000000000000e+00  -1.3757967213412752e-04 2.2650402385749680e-04 0.0000000000000000e+00  -1.3514365533309565e-04 2.1963326471114819e-04 0.0000000000000000e+00  -1.3259183003941255e-04 2.1271191887573898e-04 0.0000000000000000e+00  -1.2988968961446094e-04 2.0577822814267979e-04 0.0000000000000000e+00  -1.2706639142705703e-04 1.9876764697572427e-04 0.00000000000000