<?xml version="1.0"?>
<VTKFile type="UnstructuredGrid"  version="0.1"  >
<UnstructuredGrid>
<Piece  NumberOfPoints="16512" NumberOfCells="32424">
<Points>
<DataArray  type="Float64"  NumberOfComponents="3"  format="ascii">-25 4.9 0  25 4.9 0  25 -4.9 0  -25 -4.9 0  -10 0 0  10 0 0  -24.80000000000034 4.9 0  -24.60000000000068 4.9 0  -24.40000000000101 4.9 0  -24.20000000000135 4.9 0  -24.00000000000169 4.9 0  -23.80000000000203 4.9 0  -23.60000000000237 4.9 0  -23.40000000000271 4.9 0  -23.20000000000304 4.9 0  -23.00000000000338 4.9 0  -22.80000000000372 4.9 0  -22.60000000000406 4.9 0  -22.40000000000439 4.9 0  -22.20000000000473 4.9 0  -22.00000000000507 4.9 0  -21.80000000000541 4.9 0  -21.60000000000575 4.9 0  -21.40000000000608 4.9 0  -21.20000000000642 4.9 0  -21.00000000000676 4.9 0  -20.8000000000071 4.9 0  -20.60000000000744 4.9 0  -20.40000000000777 4.9 0  -20.20000000000811 4.9 0  -20.00000000000845 4.9 0  -19.80000000000879 4.9 0  -19.60000000000912 4.9 0  -19.40000000000946 4.9 0  -19.2000000000098 4.9 0  -19.00000000001039 4.9 0  -18.80000000001108 4.9 0  -18.60000000001231 4.9 0  -18.40000000001371 4.9 0  -18.2000000000154 4.9 0  -18.00000000001716 4.9 0  -17.80000000001892 4.9 0  -17.60000000002067 4.9 0  -17.40000000002243 4.9 0  -17.20000000002419 4.9 0  -17.00000000002595 4.9 0  -16.80000000002771 4.9 0  -16.60000000002947 4.9 0  -16.40000000003123 4.9 0  -16.20000000003299 4.9 0  -16.00000000003472 4.9 0  -15.80000000003612 4.9 0  -15.60000000003748 4.9 0  -15.40000000003853 4.9 0  -15.20000000003958 4.9 0  -15.00000000004063 4.9 0  -14.80000000004168 4.9 0  -14.60000000004273 4.9 0  -14.40000000004377 4.9 0  -14.20000000004482 4.9 0  -14.00000000004587 4.9 0  -13.80000000004692 4.9 0  -13.60000000004797 4.9 0  -13.40000000004902 4.9 0  -13.20000000005007 4.9 0  -13.00000000005111 4.9 0  -12.80000000005216 4.9 0  -12.60000000005321 4.9 0  -12.40000000005426 4.9 0  -12.20000000005531 4.9 0  -12.00000000005636 4.9 0  -11.80000000005741 4.9 0  -11.60000000005846 4.9 0  -11.4000000000595 4.9 0  -11.20000000006055 4.9 0  -11.0000000000616 4.9 0  -10.80000000006265 4.9 0  -10.6000000000637 4.9 0  -10.40000000006475 4.9 0  -10.2000000000658 4.9 0  -10.00000000006684 4.9 0  -9.800000000067891 4.9 0  -9.60000000006894 4.9 0  -9.400000000069989 4.9 0  -9.200000000070727 4.9 0  -9.00000000007142 4.9 0  -8.800000000071787 4.9 0  -8.600000000072125 4.9 0  -8.400000000072467 4.9 0  -8.200000000072805 4.9 0  -8.000000000073143 4.9 0  -7.800000000073481 4.9 0  -7.60000000007382 4.9 0  -7.400000000074154 4.9 0  -7.200000000074493 4.9 0  -7.000000000074831 4.9 0  -6.800000000075173 4.9 0  -6.600000000075511 4.9 0  -6.400000000075849 4.9 0  -6.200000000076187 4.9 0  -6.000000000076525 4.9 0  -5.800000000076867 4.9 0  -5.600000000077205 4.9 0  -5.400000000077544 4.9 0  -5.200000000077882 4.9 0  -5.00000000007822 4.9 0  -4.800000000078558 4.9 0  -4.600000000078897 4.9 0  -4.400000000079235 4.9 0  -4.200000000079573 4.9 0  -4.000000000079908 4.9 0  -3.800000000080246 4.9 0  -3.600000000080588 4.9 0  -3.400000000080926 4.9 0  -3.200000000081264 4.9 0  -3.000000000081606 4.9 0  -2.800000000081944 4.9 0  -2.600000000082282 4.9 0  -2.40000000008262 4.9 0  -2.200000000082959 4.9 0  -2.000000000083297 4.9 0  -1.800000000083635 4.9 0  -1.600000000083973 4.9 0  -1.400000000084312 4.9 0  -1.20000000008465 4.9 0  -1.000000000084988 4.9 0  -0.8000000000853262 4.9 0  -0.6000000000856645 4.9 0  -0.4000000000860027 4.9 0  -0.2000000000863409 4.9 0  -8.667910833537462e-11 4.9 0  0.1999999999129827 4.9 0  0.3999999999126409 4.9 0  0.5999999999123027 4.9 0  0.7999999999119716 4.9 0  0.9999999999116262 4.9 0  1.199999999911295 4.9 0  1.39999999991095 4.9 0  1.599999999910619 4.9 0  1.799999999910273 4.9 0  1.999999999909939 4.9 0  2.199999999909597 4.9 0  2.399999999909262 4.9 0  2.599999999908921 4.9 0  2.799999999908582 4.9 0  2.999999999908244 4.9 0  3.199999999907906 4.9 0  3.399999999907564 4.9 0  3.599999999907226 4.9 0  3.799999999906888 4.9 0  3.999999999906549 4.9 0  4.199999999906218 4.9 0  4.399999999905873 4.9 0  4.599999999905542 4.9 0  4.799999999905197 4.9 0  4.999999999904865 4.9 0  5.19999999990452 4.9 0  5.399999999904182 4.9 0  5.599999999903844 4.9 0  5.799999999903505 4.9 0  5.999999999903167 4.9 0  6.199999999902829 4.9 0  6.399999999902491 4.9 0  6.599999999902153 4.9 0  6.799999999902379 4.9 0  6.999999999902752 4.9 0  7.199999999903724 4.9 0  7.399999999904807 4.9 0  7.59999999990589 4.9 0  7.799999999906966 4.9 0  7.999999999908056 4.9 0  8.199999999909132 4.9 0  8.399999999910214 4.9 0  8.59999999991129 4.9 0  8.79999999991238 4.9 0  8.999999999913456 4.9 0  9.199999999914539 4.9 0  9.399999999915622 4.9 0  9.599999999916704 4.9 0  9.79999999991778 4.9 0  9.99999999991887 4.9 0  10.19999999991995 4.9 0  10.39999999992103 4.9 0  10.59999999992212 4.9 0  10.79999999992319 4.9 0  10.99999999992428 4.9 0  11.19999999992536 4.9 0  11.39999999992644 4.9 0  11.59999999992752 4.9 0  11.7999999999286 4.9 0  11.99999999992968 4.9 0  12.19999999993077 4.9 0  12.39999999993184 4.9 0  12.59999999993293 4.9 0  12.79999999993401 4.9 0  12.99999999993509 4.9 0  13.19999999993617 4.9 0  13.39999999993726 4.9 0  13.59999999993834 4.9 0  13.79999999993942 4.9 0  13.99999999994051 4.9 0  14.19999999994158 4.9 0  14.39999999994266 4.9 0  14.59999999994375 4.9 0  14.79999999994483 4.9 0  14.99999999994591 4.9 0  15.199999999947 4.9 0  15.39999999994807 4.9 0  15.59999999994915 4.9 0  15.79999999995024 4.9 0  15.99999999995132 4.9 0  16.1999999999524 4.9 0  16.39999999995349 4.9 0  16.59999999995456 4.9 0  16.79999999995565 4.9 0  16.99999999995674 4.9 0  17.19999999995781 4.9 0  17.39999999995889 4.9 0  17.59999999995997 4.9 0  17.79999999996106 4.9 0  17.99999999996214 4.9 0  18.19999999996322 4.9 0  18.3999999999643 4.9 0  18.59999999996538 4.9 0  18.79999999996646 4.9 0  18.99999999996755 4.9 0  19.19999999996863 4.9 0  19.39999999996971 4.9 0  19.59999999997079 4.9 0  19.79999999997187 4.9 0  19.99999999997296 4.9 0  20.19999999997404 4.9 0  20.39999999997512 4.9 0  20.5999999999762 4.9 0  20.79999999997728 4.9 0  20.99999999997836 4.9 0  21.19999999997945 4.9 0  21.39999999998052 4.9 0  21.59999999998161 4.9 0  21.79999999998269 4.9 0  21.99999999998377 4.9 0  22.19999999998485 4.9 0  22.39999999998594 4.9 0  22.59999999998701 4.9 0  22.7999999999881 4.9 0  22.99999999998919 4.9 0  23.19999999999026 4.9 0  23.39999999999135 4.9 0  23.59999999999243 4.9 0  23.79999999999351 4.9 0  23.99999999999459 4.9 0  24.19999999999568 4.9 0  24.39999999999675 4.9 0  24.59999999999783 4.9 0  24.79999999999892 4.9 0  25 4.700000000000415 0  25 4.500000000000868 0  25 4.300000000001562 0  25 4.100000000001831 0  25 3.900000000002072 0  25 3.700000000002459 0  25 3.500000000003038 0  25 3.300000000003653 0  25 3.100000000004294 0  25 2.900000000004838 0  25 2.700000000005293 0  25 2.500000000005957 0  25 2.300000000006508 0  25 2.100000000007153 0  25 1.900000000007722 0  25 1.700000000008417 0  25 1.500000000008938 0  25 1.30000000000963 0  25 1.100000000010154 0  25 0.9000000000108268 0  25 0.7000000000114559 0  25 0.5000000000119762 0  25 0.3000000000126564 0  25 0.1000000000131926 0  25 -0.09999999998679243 0  25 -0.2999999999874587 0  25 -0.4999999999878586 0  25 -0.6999999999884441 0  25 -0.899999999988804 0  25 -1.099999999989427 0  25 -1.299999999989749 0  25 -1.499999999990411 0  25 -1.69999999999073 0  25 -1.899999999991396 0  25 -2.099999999991715 0  25 -2.299999999992381 0  25 -2.499999999993047 0  25 -2.699999999993714 0  25 -2.899999999994227 0  25 -3.099999999994698 0  25 -3.299999999994673 0  25 -3.499999999995339 0  25 -3.699999999996004 0  25 -3.89999999999667 0  25 -4.099999999997335 0  25 -4.299999999998002 0  25 -4.499999999998668 0  25 -4.699999999999335 0  24.80000000000034 -4.9 0  24.60000000000068 -4.9 0  24.40000000000101 -4.9 0  24.20000000000135 -4.9 0  24.00000000000169 -4.9 0  23.80000000000203 -4.9 0  23.60000000000237 -4.9 0  23.40000000000271 -4.9 0  23.20000000000304 -4.9 0  23.00000000000338 -4.9 0  22.80000000000372 -4.9 0  22.60000000000406 -4.9 0  22.40000000000439 -4.9 0  22.20000000000473 -4.9 0  22.00000000000507 -4.9 0  21.80000000000541 -4.9 0  21.60000000000575 -4.9 0  21.40000000000608 -4.9 0  21.20000000000642 -4.9 0  21.00000000000676 -4.9 0  20.8000000000071 -4.9 0  20.60000000000744 -4.9 0  20.40000000000777 -4.9 0  20.20000000000811 -4.9 0  20.00000000000845 -4.9 0  19.80000000000879 -4.9 0  19.60000000000912 -4.9 0  19.40000000000946 -4.9 0  19.2000000000098 -4.9 0  19.00000000001039 -4.9 0  18.80000000001108 -4.9 0  18.60000000001231 -4.9 0  18.40000000001371 -4.9 0  18.2000000000154 -4.9 0  18.00000000001716 -4.9 0  17.80000000001892 -4.9 0  17.60000000002067 -4.9 0  17.40000000002243 -4.9 0  17.20000000002419 -4.9 0  17.00000000002595 -4.9 0  16.80000000002771 -4.9 0  16.60000000002947 -4.9 0  16.40000000003123 -4.9 0  16.20000000003299 -4.9 0  16.00000000003472 -4.9 0  15.80000000003612 -4.9 0  15.60000000003748 -4.9 0  15.40000000003853 -4.9 0  15.20000000003958 -4.9 0  15.00000000004063 -4.9 0  14.80000000004168 -4.9 0  14.60000000004273 -4.9 0  14.40000000004377 -4.9 0  14.20000000004482 -4.9 0  14.00000000004587 -4.9 0  13.80000000004692 -4.9 0  13.60000000004797 -4.9 0  13.40000000004902 -4.9 0  13.20000000005007 -4.9 0  13.00000000005111 -4.9 0  12.80000000005216 -4.9 0  12.60000000005321 -4.9 0  12.40000000005426 -4.9 0  12.20000000005531 -4.9 0  12.00000000005636 -4.9 0  11.80000000005741 -4.9 0  11.60000000005846 -4.9 0  11.4000000000595 -4.9 0  11.20000000006055 -4.9 0  11.0000000000616 -4.9 0  10.80000000006265 -4.9 0  10.6000000000637 -4.9 0  10.40000000006475 -4.9 0  10.2000000000658 -4.9 0  10.00000000006684 -4.9 0  9.800000000067891 -4.9 0  9.60000000006894 -4.9 0  9.400000000069989 -4.9 0  9.200000000070727 -4.9 0  9.00000000007142 -4.9 0  8.800000000071787 -4.9 0  8.600000000072125 -4.9 0  8.400000000072467 -4.9 0  8.200000000072805 -4.9 0  8.000000000073143 -4.9 
[...]
<PointData  Vectors="f_7"> 
<DataArray  type="Float64"  Name="f_7"  NumberOfComponents="3" format="ascii">2.1186826096491649e-04 5.0000000000000001e-04 0.0000000000000000e+00  -2.1207062869543953e-04 5.0000000000000001e-04 0.0000000000000000e+00  0.0000000000000000e+00 0.0000000000000000e+00 0.0000000000000000e+00  0.0000000000000000e+00 0.0000000000000000e+00 0.0000000000000000e+00  3.6857592468295096e-05 2.5081170013551953e-04 0.0000000000000000e+00  -3.6065236545518627e-05 2.4654249721912523e-04 0.0000000000000000e+00  2.0892486793971568e-04 5.0000000000000001e-04 0.0000000000000000e+00  2.0596024971607783e-04 5.0000000000000001e-04 0.0000000000000000e+00  2.0297769172215334e-04 5.0000000000000001e-04 0.0000000000000000e+00  1.9993373083671234e-04 5.0000000000000001e-04 0.0000000000000000e+00  1.9687612531336146e-04 5.0000000000000001e-04 0.0000000000000000e+00  1.9377400227948006e-04 5.0000000000000001e-04 0.0000000000000000e+00  1.9065372673755476e-04 5.0000000000000001e-04 0.0000000000000000e+00  1.8749746674891874e-04 5.0000000000000001e-04 0.0000000000000000e+00  1.8433389308650052e-04 5.0000000000000001e-04 0.0000000000000000e+00  1.8114027148373235e-04 5.0000000000000001e-04 0.0000000000000000e+00  1.7793056212442613e-04 5.0000000000000001e-04 0.0000000000000000e+00  1.7472051100390565e-04 5.0000000000000001e-04 0.0000000000000000e+00  1.7147555798811289e-04 5.0000000000000001e-04 0.0000000000000000e+00  1.6823432701303329e-04 5.0000000000000001e-04 0.0000000000000000e+00  1.6499061727731927e-04 5.0000000000000001e-04 0.0000000000000000e+00  1.6174698761715439e-04 5.0000000000000001e-04 0.0000000000000000e+00  1.5848114605499032e-04 5.0000000000000001e-04 0.0000000000000000e+00  1.5522728717020528e-04 5.0000000000000001e-04 0.0000000000000000e+00  1.5198336271839179e-04 5.0000000000000001e-04 0.0000000000000000e+00  1.4872825478929718e-04 5.0000000000000001e-04 0.0000000000000000e+00  1.4548556512117446e-04 5.0000000000000001e-04 0.0000000000000000e+00  1.4225240188981517e-04 5.0000000000000001e-04 0.0000000000000000e+00  1.3903399121235329e-04 5.0000000000000001e-04 0.0000000000000000e+00  1.3583208890996515e-04 5.0000000000000001e-04 0.0000000000000000e+00  1.3262270099453924e-04 5.0000000000000001e-04 0.0000000000000000e+00  1.2943445452573074e-04 5.0000000000000001e-04 0.0000000000000000e+00  1.2626556464752535e-04 5.0000000000000001e-04 0.0000000000000000e+00  1.2310879874646792e-04 5.0000000000000001e-04 0.0000000000000000e+00  1.1996867539513121e-04 5.0000000000000001e-04 0.0000000000000000e+00  1.1684699776229703e-04 5.0000000000000001e-04 0.0000000000000000e+00  1.1373868300712213e-04 5.0000000000000001e-04 0.0000000000000000e+00  1.1064850554123381e-04 5.0000000000000001e-04 0.0000000000000000e+00  1.0757649107468407e-04 5.0000000000000001e-04 0.0000000000000000e+00  1.0452544276189120e-04 5.0000000000000001e-04 0.0000000000000000e+00  1.0147910105393163e-04 5.0000000000000001e-04 0.0000000000000000e+00  9.8455274503331556e-05 5.0000000000000001e-04 0.0000000000000000e+00  9.5444878345216292e-05 5.0000000000000001e-04 0.0000000000000000e+00  9.2452430015480040e-05 5.0000000000000001e-04 0.0000000000000000e+00  8.9467879271520030e-05 5.0000000000000001e-04 0.0000000000000000e+00  8.6498372001200281e-05 5.0000000000000001e-04 0.0000000000000000e+00  8.3542153657449768e-05 5.0000000000000001e-04 0.0000000000000000e+00  8.0595648799425206e-05 5.0000000000000001e-04 0.0000000000000000e+00  7.7657400327036866e-05 5.0000000000000001e-04 0.0000000000000000e+00  7.4726344214741917e-05 5.0000000000000001e-04 0.0000000000000000e+00  7.1800345113379183e-05 5.0000000000000001e-04 0.0000000000000000e+00  6.8879200222962466e-05 5.0000000000000001e-04 0.0000000000000000e+00  6.5961519842860491e-05 5.0000000000000001e-04 0.0000000000000000e+00  6.3044562691560082e-05 5.0000000000000001e-04 0.0000000000000000e+00  6.0127561813371970e-05 5.0000000000000001e-04 0.0000000000000000e+00  5.7210377634089095e-05 5.0000000000000001e-04 0.0000000000000000e+00  5.4289658090962741e-05 5.0000000000000001e-04 0.0000000000000000e+00  5.1364280491129792e-05 5.0000000000000001e-04 0.0000000000000000e+00  4.8435465151119627e-05 5.0000000000000001e-04 0.0000000000000000e+00  4.5498738563036274e-05 5.0000000000000001e-04 0.0000000000000000e+00  4.2561420395523122e-05 5.0000000000000001e-04 0.0000000000000000e+00  3.9618663539753829e-05 5.0000000000000001e-04 0.0000000000000000e+00  3.6672139319512297e-05 5.0000000000000001e-04 0.0000000000000000e+00  3.3722837519668635e-05 5.0000000000000001e-04 0.0000000000000000e+00  3.0776853664479307e-05 5.0000000000000001e-04 0.0000000000000000e+00  2.7832914684321554e-05 5.0000000000000001e-04 0.0000000000000000e+00  2.4909863843467893e-05 5.0000000000000001e-04 0.0000000000000000e+00  2.2000582082954817e-05 5.0000000000000001e-04 0.0000000000000000e+00  1.9115384284884051e-05 5.0000000000000001e-04 0.0000000000000000e+00  1.6258830280775281e-05 5.0000000000000001e-04 0.0000000000000000e+00  1.3443429738552055e-05 5.0000000000000001e-04 0.0000000000000000e+00  1.0692670655085493e-05 5.0000000000000001e-04 0.0000000000000000e+00  8.0115901228031575e-06 5.0000000000000001e-04 0.0000000000000000e+00  5.4314649517936716e-06 5.0000000000000001e-04 0.0000000000000000e+00  2.9311738409457228e-06 5.0000000000000001e-04 0.0000000000000000e+00  5.1752923650771344e-07 5.0000000000000001e-04 0.0000000000000000e+00  -1.7568033741774782e-06 5.0000000000000001e-04 0.0000000000000000e+00  -3.8673665690692786e-06 5.0000000000000001e-04 0.0000000000000000e+00  -5.8306221182701388e-06 5.0000000000000001e-04 0.0000000000000000e+00  -7.6622838004338579e-06 5.0000000000000001e-04 0.0000000000000000e+00  -9.2858333165094296e-06 5.0000000000000001e-04 0.0000000000000000e+00  -1.0758942516794196e-05 5.0000000000000001e-04 0.0000000000000000e+00  -1.2044558172310913e-05 5.0000000000000001e-04 0.0000000000000000e+00  -1.3129728306073437e-05 5.0000000000000001e-04 0.0000000000000000e+00  -1.4042216980295666e-05 5.0000000000000001e-04 0.0000000000000000e+00  -1.4790034391805210e-05 5.0000000000000001e-04 0.0000000000000000e+00  -1.5363254332625878e-05 5.0000000000000001e-04 0.0000000000000000e+00  -1.5768612723883565e-05 5.0000000000000001e-04 0.0000000000000000e+00  -1.6014759137704381e-05 5.0000000000000001e-04 0.0000000000000000e+00  -1.6117151285217431e-05 5.0000000000000001e-04 0.0000000000000000e+00  -1.6106367402612526e-05 5.0000000000000001e-04 0.0000000000000000e+00  -1.5988166215424518e-05 5.0000000000000001e-04 0.0000000000000000e+00  -1.5754431408857655e-05 5.0000000000000001e-04 0.0000000000000000e+00  -1.5424467825090753e-05 5.0000000000000001e-04 0.0000000000000000e+00  -1.5035241152077237e-05 5.0000000000000001e-04 0.0000000000000000e+00  -1.4584958041744815e-05 5.0000000000000001e-04 0.0000000000000000e+00  -1.4085146947015604e-05 5.0000000000000001e-04 0.0000000000000000e+00  -1.3531294489297990e-05 5.0000000000000001e-04 0.0000000000000000e+00  -1.2953996181205437e-05 5.0000000000000001e-04 0.0000000000000000e+00  -1.2355559167449366e-05 5.0000000000000001e-04 0.0000000000000000e+00  -1.1747415645985145e-05 5.0000000000000001e-04 0.0000000000000000e+00  -1.1123921150191103e-05 5.0000000000000001e-04 0.0000000000000000e+00  -1.0505582299618292e-05 5.0000000000000001e-04 0.0000000000000000e+00  -9.8938937435889684e-06 5.0000000000000001e-04 0.0000000000000000e+00  -9.2908651698444483e-06 5.0000000000000001e-04 0.0000000000000000e+00  -8.7013661390978581e-06 5.0000000000000001e-04 0.0000000000000000e+00  -8.1302266169111598e-06 5.0000000000000001e-04 0.0000000000000000e+00  -7.5808109660636821e-06 5.0000000000000001e-04 0.0000000000000000e+00  -7.0467846326718726e-06 5.0000000000000001e-04 0.0000000000000000e+00  -6.5390134970832055e-06 5.0000000000000001e-04 0.0000000000000000e+00  -6.0564401916789900e-06 5.0000000000000001e-04 0.0000000000000000e+00  -5.6010371968579767e-06 5.0000000000000001e-04 0.0000000000000000e+00  -5.1715451514937215e-06 5.0000000000000001e-04 0.0000000000000000e+00  -4.7669228233660778e-06 5.0000000000000001e-04 0.0000000000000000e+00  -4.3869967565146286e-06 5.0000000000000001e-04 0.0000000000000000e+00  -4.0335943555381799e-06 5.0000000000000001e-04 0.0000000000000000e+00  -3.7041325902261050e-06 5.0000000000000001e-04 0.0000000000000000e+00  -3.3975004341684458e-06 5.0000000000000001e-04 0.0000000000000000e+00  -3.1101979664404003e-06 5.0000000000000001e-04 0.0000000000000000e+00  -2.8440481330340480e-06 5.0000000000000001e-04 0.0000000000000000e+00  -2.5941694165251106e-06 5.0000000000000001e-04 0.0000000000000000e+00  -2.3617248339882324e-06 5.0000000000000001e-04 0.0000000000000000e+00  -2.1420601181887737e-06 5.0000000000000001e-04 0.0000000000000000e+00  -1.9350817107148042e-06 5.0000000000000001e-04 0.0000000000000000e+00  -1.7379212334646763e-06 5.0000000000000001e-04 0.0000000000000000e+00  -1.5483626555283000e-06 5.0000000000000001e-04 0.0000000000000000e+00  -1.3646713146154861e-06 5.0000000000000001e-04 0.0000000000000000e+00  -1.1845593646155289e-06 5.0000000000000001e-04 0.0000000000000000e+00  -1.0052439939518642e-06 5.0000000000000001e-04 0.0000000000000000e+00  -8.2529878937746447e-07 5.0000000000000001e-04 0.0000000000000000e+00  -6.4296704055640292e-07 5.0000000000000001e-04 0.0000000000000000e+00  -4.5659859510538682e-07 5.0000000000000001e-04 0.0000000000000000e+00  -2.6229907591092707e-07 5.0000000000000001e-04 0.0000000000000000e+00  -6.0958289155148787e-08 5.0000000000000001e-04 0.0000000000000000e+00  1.4968000824625964e-07 5.0000000000000001e-04 0.0000000000000000e+00  3.7284220531871775e-07 5.0000000000000001e-04 0.0000000000000000e+00  6.0864339775437079e-07 5.0000000000000001e-04 0.0000000000000000e+00  8.5894192260403621e-07 5.0000000000000001e-04 0.0000000000000000e+00  1.1257855641066480e-06 5.0000000000000001e-04 0.0000000000000000e+00  1.4080903175923681e-06 5.0000000000000001e-04 0.0000000000000000e+00  1.7070487984447602e-06 5.0000000000000001e-04 0.0000000000000000e+00  2.0235787196559787e-06 5.0000000000000001e-04 0.0000000000000000e+00  2.3592320930376126e-06 5.0000000000000001e-04 0.0000000000000000e+00  2.7136389594723972e-06 5.0000000000000001e-04 0.0000000000000000e+00  3.0874644667165409e-06 5.0000000000000001e-04 0.0000000000000000e+00  3.4814450763155518e-06 5.0000000000000001e-04 0.0000000000000000e+00  3.8947428164415579e-06 5.0000000000000001e-04 0.0000000000000000e+00  4.3297216357553781e-06 5.0000000000000001e-04 0.0000000000000000e+00  4.7851987882521971e-06 5.0000000000000001e-04 0.0000000000000000e+00  5.2586311482374757e-06 5.0000000000000001e-04 0.0000000000000000e+00  5.7541946764742796e-06 5.0000000000000001e-04 0.0000000000000000e+00  6.2698381732016235e-06 5.0000000000000001e-04 0.0000000000000000e+00  6.8054296840812912e-06 5.0000000000000001e-04 0.0000000000000000e+00  7.3600710577658071e-06 5.0000000000000001e-04 0.0000000000000000e+00  7.9309430386601862e-06 5.0000000000000001e-04 0.0000000000000000e+00  8.5262246972262687e-06 5.0000000000000001e-04 0.0000000000000000e+00  9.1252919610815655e-06 5.0000000000000001e-04 0.0000000000000000e+00  9.7381871282878549e-06 5.0000000000000001e-04 0.0000000000000000e+00  1.0360513267216871e-05 5.0000000000000001e-04 0.0000000000000000e+00  1.0989255724652338e-05 5.0000000000000001e-04 0.0000000000000000e+00  1.1609619215508097e-05 5.0000000000000001e-04 0.0000000000000000e+00  1.2225392090428836e-05 5.0000000000000001e-04 0.0000000000000000e+00  1.2825515445849209e-05 5.0000000000000001e-04 0.0000000000000000e+00  1.3404437826373676e-05 5.0000000000000001e-04 0.0000000000000000e+00  1.3956490778070483e-05 5.0000000000000001e-04 0.0000000000000000e+00  1.4454235231059785e-05 5.0000000000000001e-04 0.0000000000000000e+00  1.4899678359728542e-05 5.0000000000000001e-04 0.0000000000000000e+00  1.5269994208012659e-05 5.0000000000000001e-04 0.0000000000000000e+00  1.5588052596512710e-05 5.0000000000000001e-04 0.0000000000000000e+00  1.5804255413886194e-05 5.0000000000000001e-04 0.0000000000000000e+00  1.5910422032129362e-05 5.0000000000000001e-04 0.0000000000000000e+00  1.5915332232847867e-05 5.0000000000000001e-04 0.0000000000000000e+00  1.5771614243314346e-05 5.0000000000000001e-04 0.0000000000000000e+00  1.5527582193883512e-05 5.0000000000000001e-04 0.0000000000000000e+00  1.5124856790555033e-05 5.0000000000000001e-04 0.0000000000000000e+00  1.4533458228521936e-05 5.0000000000000001e-04 0.0000000000000000e+00  1.3761151755760276e-05 5.0000000000000001e-04 0.0000000000000000e+00  1.2829343916281088e-05 5.0000000000000001e-04 0.0000000000000000e+00  1.1706180803211303e-05 5.0000000000000001e-04 0.0000000000000000e+00  1.0393354196748353e-05 5.0000000000000001e-04 0.0000000000000000e+00  8.9088607102223872e-06 5.0000000000000001e-04 0.0000000000000000e+00  7.2358946897651987e-06 5.0000000000000001e-04 0.0000000000000000e+00  5.4542148308397731e-06 5.0000000000000001e-04 0.0000000000000000e+00  3.4573646963749527e-06 5.0000000000000001e-04 0.0000000000000000e+00  1.3183937448690557e-06 5.0000000000000001e-04 0.0000000000000000e+00  -9.5427355590577702e-07 5.0000000000000001e-04 0.0000000000000000e+00  -3.3552269622771888e-06 5.0000000000000001e-04 0.0000000000000000e+00  -5.8522386434142348e-06 5.0000000000000001e-04 0.0000000000000000e+00  -8.4620249436266655e-06 5.0000000000000001e-04 0.0000000000000000e+00  -1.1136965951258836e-05 5.0000000000000001e-04 0.0000000000000000e+00  -1.3894254041983094e-05 5.0000000000000001e-04 0.0000000000000000e+00  -1.6699035759115189e-05 5.0000000000000001e-04 0.0000000000000000e+00  -1.9544968487322533e-05 5.0000000000000001e-04 0.0000000000000000e+00  -2.2422312060952921e-05 5.0000000000000001e-04 0.0000000000000000e+00  -2.5332075739257226e-05 5.0000000000000001e-04 0.0000000000000000e+00  -2.8252301145690941e-05 5.0000000000000001e-04 0.0000000000000000e+00  -3.1186265280691127e-05 5.0000000000000001e-04 0.0000000000000000e+00  -3.4124221611561080e-05 5.0000000000000001e-04 0.0000000000000000e+00  -3.7064021154404186e-05 5.0000000000000001e-04 0.0000000000000000e+00  -4.0002859854296408e-05 5.0000000000000001e-04 0.0000000000000000e+00  -4.2938534663137468e-05 5.0000000000000001e-04 0.0000000000000000e+00  -4.5869902442185159e-05 5.0000000000000001e-04 0.0000000000000000e+00  -4.8795690284905634e-05 5.0000000000000001e-04 0.0000000000000000e+00  -5.1717776620134433e-05 5.0000000000000001e-04 0.0000000000000000e+00  -5.4635376741806135e-05 5.0000000000000001e-04 0.0000000000000000e+00  -5.7549665618423139e-05 5.0000000000000001e-04 0.0000000000000000e+00  -6.0460432149283440e-05 5.0000000000000001e-04 0.0000000000000000e+00  -6.3369108783137862e-05 5.0000000000000001e-04 0.0000000000000000e+00  -6.6278823388775745e-05 5.0000000000000001e-04 0.0000000000000000e+00  -6.9189805892081913e-05 5.0000000000000001e-04 0.0000000000000000e+00  -7.2104781865989025e-05 5.0000000000000001e-04 0.0000000000000000e+00  -7.5024387162619339e-05 5.0000000000000001e-04 0.0000000000000000e+00  -7.7948876783440806e-05 5.0000000000000001e-04 0.0000000000000000e+00  -8.0881860878548122e-05 5.0000000000000001e-04 0.0000000000000000e+00  -8.3824757407402763e-05 5.0000000000000001e-04 0.0000000000000000e+00  -8.6779521720061186e-05 5.0000000000000001e-04 0.0000000000000000e+00  -8.9745616010395948e-05 5.0000000000000001e-04 0.0000000000000000e+00  -9.2718764011476929e-05 5.0000000000000001e-04 0.0000000000000000e+00  -9.5709186686879851e-05 5.0000000000000001e-04 0.0000000000000000e+00  -9.8715274340930242e-05 5.0000000000000001e-04 0.0000000000000000e+00  -1.0174017814715734e-04 5.0000000000000001e-04 0.0000000000000000e+00  -1.0477115621343176e-04 5.0000000000000001e-04 0.0000000000000000e+00  -1.0782439257374290e-04 5.0000000000000001e-04 0.0000000000000000e+00  -1.1089828216374137e-04 5.0000000000000001e-04 0.0000000000000000e+00  -1.1398135328461718e-04 5.0000000000000001e-04 0.0000000000000000e+00  -1.1708501512270549e-04 5.0000000000000001e-04 0.0000000000000000e+00  -1.2020651211071806e-04 5.0000000000000001e-04 0.0000000000000000e+00  -1.2334664492063646e-04 5.0000000000000001e-04 0.0000000000000000e+00  -1.2650091283156165e-04 5.0000000000000001e-04 0.0000000000000000e+00  -1.2966736195316674e-04 5.0000000000000001e-04 0.0000000000000000e+00  -1.3284956602134095e-04 5.0000000000000001e-04 0.0000000000000000e+00  -1.3604879409887164e-04 5.0000000000000001e-04 0.0000000000000000e+00  -1.3925861811105470e-04 5.0000000000000001e-04 0.0000000000000000e+00  -1.4247876144540499e-04 5.0000000000000001e-04 0.0000000000000000e+00  -1.4570920792643426e-04 5.0000000000000001e-04 0.0000000000000000e+00  -1.4895035341189032e-04 5.0000000000000001e-04 0.0000000000000000e+00  -1.5219378372710718e-04 5.0000000000000001e-04 0.0000000000000000e+00  -1.5544661781144526e-04 5.0000000000000001e-04 0.0000000000000000e+00  -1.5869535468756549e-04 5.0000000000000001e-04 0.0000000000000000e+00  -1.6195027646746869e-04 5.0000000000000001e-04 0.0000000000000000e+00  -1.6520458025513028e-04 5.0000000000000001e-04 0.0000000000000000e+00  -1.6844957625678441e-04 5.0000000000000001e-04 0.0000000000000000e+00  -1.7168982669020537e-04 5.0000000000000001e-04 0.0000000000000000e+00  -1.7492259625887953e-04 5.0000000000000001e-04 0.0000000000000000e+00  -1.7814275788447271e-04 5.0000000000000001e-04 0.0000000000000000e+00  -1.8134559706611326e-04 5.0000000000000001e-04 0.0000000000000000e+00  -1.8454149184745673e-04 5.0000000000000001e-04 0.0000000000000000e+00  -1.8771253645468819e-04 5.0000000000000001e-04 0.0000000000000000e+00  -1.9086049008385449e-04 5.0000000000000001e-04 0.0000000000000000e+00  -1.9398335573966220e-04 5.0000000000000001e-04 0.0000000000000000e+00  -1.9707470150445285e-04 5.0000000000000001e-04 0.0000000000000000e+00  -2.0013915285380966e-04 5.0000000000000001e-04 0.0000000000000000e+00  -2.0317646494684842e-04 5.0000000000000001e-04 0.0000000000000000e+00  -2.0616313510573678e-04 5.0000000000000001e-04 0.0000000000000000e+00  -2.0912669719743281e-04 5.0000000000000001e-04 0.0000000000000000e+00  -2.1200156989643643e-04 4.9128128501782584e-04 0.0000000000000000e+00  -2.1180988295404506e-04 4.8256013968517872e-04 0.0000000000000000e+00  -2.1153947707890883e-04 4.7383630564660096e-04 0.0000000000000000e+00  -2.1112136910788414e-04 4.6510927811665233e-04 0.0000000000000000e+00  -2.1059842760832434e-04 4.5639313888558785e-04 0.0000000000000000e+00  -2.0993317091174991e-04 4.4765008761204014e-04 0.0000000000000000e+00  -2.0916430858430204e-04 4.3892349119751026e-04 0.0000000000000000e+00  -2.0827933745098753e-04 4.3017473798712071e-04 0.0000000000000000e+00  -2.0726104806142770e-04 4.2142270495008698e-04 0.0000000000000000e+00  -2.0611736532561299e-04 4.1267922791902875e-04 0.0000000000000000e+00  -2.0485210930502626e-04 4.0390601609915309e-04 0.0000000000000000e+00  -2.0345701605793668e-04 3.9513145160759708e-04 0.0000000000000000e+00  -2.0193884620441565e-04 3.8633489189589341e-04 0.0000000000000000e+00  -2.0028070025873308e-04 3.7755042830435502e-04 0.0000000000000000e+00  -1.9849842163158023e-04 3.6872276325551422e-04 0.0000000000000000e+00  -1.9657475185430636e-04 3.5987303530239916e-04 0.0000000000000000e+00  -1.9450990255508524e-04 3.5102788003698622e-04 0.0000000000000000e+00  -1.9230712661837473e-04 3.4213951678793139e-04 0.0000000000000000e+00  -1.8995302648421153e-04 3.3325152527955256e-04 0.0000000000000000e+00  -1.8745186537863056e-04 3.2432762893638833e-04 0.0000000000000000e+00  -1.8480672893947308e-04 3.1534917101173828e-04 0.0000000000000000e+00  -1.8199400608450336e-04 3.0637951769403523e-04 0.0000000000000000e+00  -1.7902890461229793e-04 2.9734208973547309e-04 0.0000000000000000e+00  -1.7588439550882175e-04 2.8828741678398702e-04 0.0000000000000000e+00  -1.7258867512691341e-04 2.7916839987819267e-04 0.0000000000000000e+00  -1.6909767160837449e-04 2.7003487565739652e-04 0.0000000000000000e+00  -1.6544819615921973e-04 2.6080278896060629e-04 0.0000000000000000e+0