<?xml version="1.0"?>
<VTKFile type="UnstructuredGrid"  version="0.1"  >
<UnstructuredGrid>
<Piece  NumberOfPoints="16512" NumberOfCells="32424">
<Points>
<DataArray  type="Float64"  NumberOfComponents="3"  format="ascii">-25 4.9 0  25 4.9 0  25 -4.9 0  -25 -4.9 0  -10 0 0  10 0 0  -24.80000000000034 4.9 0  -24.60000000000068 4.9 0  -24.40000000000101 4.9 0  -24.20000000000135 4.9 0  -24.00000000000169 4.9 0  -23.80000000000203 4.9 0  -23.60000000000237 4.9 0  -23.40000000000271 4.9 0  -23.20000000000304 4.9 0  -23.00000000000338 4.9 0  -22.80000000000372 4.9 0  -22.60000000000406 4.9 0  -22.40000000000439 4.9 0  -22.20000000000473 4.9 0  -22.00000000000507 4.9 0  -21.80000000000541 4.9 0  -21.60000000000575 4.9 0  -21.40000000000608 4.9 0  -21.20000000000642 4.9 0  -21.00000000000676 4.9 0  -20.8000000000071 4.9 0  -20.60000000000744 4.9 0  -20.40000000000777 4.9 0  -20.20000000000811 4.9 0  -20.00000000000845 4.9 0  -19.80000000000879 4.9 0  -19.60000000000912 4.9 0  -19.40000000000946 4.9 0  -19.2000000000098 4.9 0  -19.00000000001039 4.9 0  -18.80000000001108 4.9 0  -18.60000000001231 4.9 0  -18.40000000001371 4.9 0  -18.2000000000154 4.9 0  -18.00000000001716 4.9 0  -17.80000000001892 4.9 0  -17.60000000002067 4.9 0  -17.40000000002243 4.9 0  -17.20000000002419 4.9 0  -17.00000000002595 4.9 0  -16.80000000002771 4.9 0  -16.60000000002947 4.9 0  -16.40000000003123 4.9 0  -16.20000000003299 4.9 0  -16.00000000003472 4.9 0  -15.80000000003612 4.9 0  -15.60000000003748 4.9 0  -15.40000000003853 4.9 0  -15.20000000003958 4.9 0  -15.00000000004063 4.9 0  -14.80000000004168 4.9 0  -14.60000000004273 4.9 0  -14.40000000004377 4.9 0  -14.20000000004482 4.9 0  -14.00000000004587 4.9 0  -13.80000000004692 4.9 0  -13.60000000004797 4.9 0  -13.40000000004902 4.9 0  -13.20000000005007 4.9 0  -13.00000000005111 4.9 0  -12.80000000005216 4.9 0  -12.60000000005321 4.9 0  -12.40000000005426 4.9 0  -12.20000000005531 4.9 0  -12.00000000005636 4.9 0  -11.80000000005741 4.9 0  -11.60000000005846 4.9 0  -11.4000000000595 4.9 0  -11.20000000006055 4.9 0  -11.0000000000616 4.9 0  -10.80000000006265 4.9 0  -10.6000000000637 4.9 0  -10.40000000006475 4.9 0  -10.2000000000658 4.9 0  -10.00000000006684 4.9 0  -9.800000000067891 4.9 0  -9.60000000006894 4.9 0  -9.400000000069989 4.9 0  -9.200000000070727 4.9 0  -9.00000000007142 4.9 0  -8.800000000071787 4.9 0  -8.600000000072125 4.9 0  -8.400000000072467 4.9 0  -8.200000000072805 4.9 0  -8.000000000073143 4.9 0  -7.800000000073481 4.9 0  -7.60000000007382 4.9 0  -7.400000000074154 4.9 0  -7.200000000074493 4.9 0  -7.000000000074831 4.9 0  -6.800000000075173 4.9 0  -6.600000000075511 4.9 0  -6.400000000075849 4.9 0  -6.200000000076187 4.9 0  -6.000000000076525 4.9 0  -5.800000000076867 4.9 0  -5.600000000077205 4.9 0  -5.400000000077544 4.9 0  -5.200000000077882 4.9 0  -5.00000000007822 4.9 0  -4.800000000078558 4.9 0  -4.600000000078897 4.9 0  -4.400000000079235 4.9 0  -4.200000000079573 4.9 0  -4.000000000079908 4.9 0  -3.800000000080246 4.9 0  -3.600000000080588 4.9 0  -3.400000000080926 4.9 0  -3.200000000081264 4.9 0  -3.000000000081606 4.9 0  -2.800000000081944 4.9 0  -2.600000000082282 4.9 0  -2.40000000008262 4.9 0  -2.200000000082959 4.9 0  -2.000000000083297 4.9 0  -1.800000000083635 4.9 0  -1.600000000083973 4.9 0  -1.400000000084312 4.9 0  -1.20000000008465 4.9 0  -1.000000000084988 4.9 0  -0.8000000000853262 4.9 0  -0.6000000000856645 4.9 0  -0.4000000000860027 4.9 0  -0.2000000000863409 4.9 0  -8.667910833537462e-11 4.9 0  0.1999999999129827 4.9 0  0.3999999999126409 4.9 0  0.5999999999123027 4.9 0  0.7999999999119716 4.9 0  0.9999999999116262 4.9 0  1.199999999911295 4.9 0  1.39999999991095 4.9 0  1.599999999910619 4.9 0  1.799999999910273 4.9 0  1.999999999909939 4.9 0  2.199999999909597 4.9 0  2.399999999909262 4.9 0  2.599999999908921 4.9 0  2.799999999908582 4.9 0  2.999999999908244 4.9 0  3.199999999907906 4.9 0  3.399999999907564 4.9 0  3.599999999907226 4.9 0  3.799999999906888 4.9 0  3.999999999906549 4.9 0  4.199999999906218 4.9 0  4.399999999905873 4.9 0  4.599999999905542 4.9 0  4.799999999905197 4.9 0  4.999999999904865 4.9 0  5.19999999990452 4.9 0  5.399999999904182 4.9 0  5.599999999903844 4.9 0  5.799999999903505 4.9 0  5.999999999903167 4.9 0  6.199999999902829 4.9 0  6.399999999902491 4.9 0  6.599999999902153 4.9 0  6.799999999902379 4.9 0  6.999999999902752 4.9 0  7.199999999903724 4.9 0  7.399999999904807 4.9 0  7.59999999990589 4.9 0  7.799999999906966 4.9 0  7.999999999908056 4.9 0  8.199999999909132 4.9 0  8.399999999910214 4.9 0  8.59999999991129 4.9 0  8.79999999991238 4.9 0  8.999999999913456 4.9 0  9.199999999914539 4.9 0  9.399999999915622 4.9 0  9.599999999916704 4.9 0  9.79999999991778 4.9 0  9.99999999991887 4.9 0  10.19999999991995 4.9 0  10.39999999992103 4.9 0  10.59999999992212 4.9 0  10.79999999992319 4.9 0  10.99999999992428 4.9 0  11.19999999992536 4.9 0  11.39999999992644 4.9 0  11.59999999992752 4.9 0  11.7999999999286 4.9 0  11.99999999992968 4.9 0  12.19999999993077 4.9 0  12.39999999993184 4.9 0  12.59999999993293 4.9 0  12.79999999993401 4.9 0  12.99999999993509 4.9 0  13.19999999993617 4.9 0  13.39999999993726 4.9 0  13.59999999993834 4.9 0  13.79999999993942 4.9 0  13.99999999994051 4.9 0  14.19999999994158 4.9 0  14.39999999994266 4.9 0  14.59999999994375 4.9 0  14.79999999994483 4.9 0  14.99999999994591 4.9 0  15.199999999947 4.9 0  15.39999999994807 4.9 0  15.59999999994915 4.9 0  15.79999999995024 4.9 0  15.99999999995132 4.9 0  16.1999999999524 4.9 0  16.39999999995349 4.9 0  16.59999999995456 4.9 0  16.79999999995565 4.9 0  16.99999999995674 4.9 0  17.19999999995781 4.9 0  17.39999999995889 4.9 0  17.59999999995997 4.9 0  17.79999999996106 4.9 0  17.99999999996214 4.9 0  18.19999999996322 4.9 0  18.3999999999643 4.9 0  18.59999999996538 4.9 0  18.79999999996646 4.9 0  18.99999999996755 4.9 0  19.19999999996863 4.9 0  19.39999999996971 4.9 0  19.59999999997079 4.9 0  19.79999999997187 4.9 0  19.99999999997296 4.9 0  20.19999999997404 4.9 0  20.39999999997512 4.9 0  20.5999999999762 4.9 0  20.79999999997728 4.9 0  20.99999999997836 4.9 0  21.19999999997945 4.9 0  21.39999999998052 4.9 0  21.59999999998161 4.9 0  21.79999999998269 4.9 0  21.99999999998377 4.9 0  22.19999999998485 4.9 0  22.39999999998594 4.9 0  22.59999999998701 4.9 0  22.7999999999881 4.9 0  22.99999999998919 4.9 0  23.19999999999026 4.9 0  23.39999999999135 4.9 0  23.59999999999243 4.9 0  23.79999999999351 4.9 0  23.99999999999459 4.9 0  24.19999999999568 4.9 0  24.39999999999675 4.9 0  24.59999999999783 4.9 0  24.79999999999892 4.9 0  25 4.700000000000415 0  25 4.500000000000868 0  25 4.300000000001562 0  25 4.100000000001831 0  25 3.900000000002072 0  25 3.700000000002459 0  25 3.500000000003038 0  25 3.300000000003653 0  25 3.100000000004294 0  25 2.900000000004838 0  25 2.700000000005293 0  25 2.500000000005957 0  25 2.300000000006508 0  25 2.100000000007153 0  25 1.900000000007722 0  25 1.700000000008417 0  25 1.500000000008938 0  25 1.30000000000963 0  25 1.100000000010154 0  25 0.9000000000108268 0  25 0.7000000000114559 0  25 0.5000000000119762 0  25 0.3000000000126564 0  25 0.1000000000131926 0  25 -0.09999999998679243 0  25 -0.2999999999874587 0  25 -0.4999999999878586 0  25 -0.6999999999884441 0  25 -0.899999999988804 0  25 -1.099999999989427 0  25 -1.299999999989749 0  25 -1.499999999990411 0  25 -1.69999999999073 0  25 -1.899999999991396 0  25 -2.099999999991715 0  25 -2.299999999992381 0  25 -2.499999999993047 0  25 -2.699999999993714 0  25 -2.899999999994227 0  25 -3.099999999994698 0  25 -3.299999999994673 0  25 -3.499999999995339 0  25 -3.699999999996004 0  25 -3.89999999999667 0  25 -4.099999999997335 0  25 -4.299999999998002 0  25 -4.499999999998668 0  25 -4.699999999999335 0  24.80000000000034 -4.9 0  24.60000000000068 -4.9 0  24.40000000000101 -4.9 0  24.20000000000135 -4.9 0  24.00000000000169 -4.9 0  23.80000000000203 -4.9 0  23.60000000000237 -4.9 0  23.40000000000271 -4.9 0  23.20000000000304 -4.9 0  23.00000000000338 -4.9 0  22.80000000000372 -4.9 0  22.60000000000406 -4.9 0  22.40000000000439 -4.9 0  22.20000000000473 -4.9 0  22.00000000000507 -4.9 0  21.80000000000541 -4.9 0  21.60000000000575 -4.9 0  21.40000000000608 -4.9 0  21.20000000000642 -4.9 0  21.00000000000676 -4.9 0  20.8000000000071 -4.9 0  20.60000000000744 -4.9 0  20.40000000000777 -4.9 0  20.20000000000811 -4.9 0  20.00000000000845 -4.9 0  19.80000000000879 -4.9 0  19.60000000000912 -4.9 0  19.40000000000946 -4.9 0  19.2000000000098 -4.9 0  19.00000000001039 -4.9 0  18.80000000001108 -4.9 0  18.60000000001231 -4.9 0  18.40000000001371 -4.9 0  18.2000000000154 -4.9 0  18.00000000001716 -4.9 0  17.80000000001892 -4.9 0  17.60000000002067 -4.9 0  17.40000000002243 -4.9 0  17.20000000002419 -4.9 0  17.00000000002595 -4.9 0  16.80000000002771 -4.9 0  16.60000000002947 -4.9 0  16.40000000003123 -4.9 0  16.20000000003299 -4.9 0  16.00000000003472 -4.9 0  15.80000000003612 -4.9 0  15.60000000003748 -4.9 0  15.40000000003853 -4.9 0  15.20000000003958 -4.9 0  15.00000000004063 -4.9 0  14.80000000004168 -4.9 0  14.60000000004273 -4.9 0  14.40000000004377 -4.9 0  14.20000000004482 -4.9 0  14.00000000004587 -4.9 0  13.80000000004692 -4.9 0  13.60000000004797 -4.9 0  13.40000000004902 -4.9 0  13.20000000005007 -4.9 0  13.00000000005111 -4.9 0  12.80000000005216 -4.9 0  12.60000000005321 -4.9 0  12.40000000005426 -4.9 0  12.20000000005531 -4.9 0  12.00000000005636 -4.9 0  11.80000000005741 -4.9 0  11.60000000005846 -4.9 0  11.4000000000595 -4.9 0  11.20000000006055 -4.9 0  11.0000000000616 -4.9 0  10.80000000006265 -4.9 0  10.6000000000637 -4.9 0  10.40000000006475 -4.9 0  10.2000000000658 -4.9 0  10.00000000006684 -4.9 0  9.800000000067891 -4.9 0  9.60000000006894 -4.9 0  9.400000000069989 -4.9 0  9.200000000070727 -4.9 0  9.00000000007142 -4.9 0  8.800000000071787 -4.9 0  8.600000000072125 -4.9 0  8.400000000072467 -4.9 0  8.200000000072805 -4.9 0  8.000000000073143 -4.9 
[...]
<PointData  Vectors="f_7"> 
<DataArray  type="Float64"  Name="f_7"  NumberOfComponents="3" format="ascii">2.9939109250396606e-04 7.7000000000000007e-04 0.0000000000000000e+00  -2.9931421704741879e-04 7.7000000000000007e-04 0.0000000000000000e+00  0.0000000000000000e+00 0.0000000000000000e+00 0.0000000000000000e+00  0.0000000000000000e+00 0.0000000000000000e+00 0.0000000000000000e+00  4.1956622331205357e-05 3.8518862360426909e-04 0.0000000000000000e+00  -4.2617601303117272e-05 3.7514704095084205e-04 0.0000000000000000e+00  2.9474253313297182e-04 7.7000000000000007e-04 0.0000000000000000e+00  2.9006524315109198e-04 7.7000000000000007e-04 0.0000000000000000e+00  2.8536331306007180e-04 7.7000000000000007e-04 0.0000000000000000e+00  2.8057854069930041e-04 7.7000000000000007e-04 0.0000000000000000e+00  2.7577260996155189e-04 7.7000000000000007e-04 0.0000000000000000e+00  2.7090479806322172e-04 7.7000000000000007e-04 0.0000000000000000e+00  2.6600856479001140e-04 7.7000000000000007e-04 0.0000000000000000e+00  2.6105952140175132e-04 7.7000000000000007e-04 0.0000000000000000e+00  2.5609631858950925e-04 7.7000000000000007e-04 0.0000000000000000e+00  2.5108709351017648e-04 7.7000000000000007e-04 0.0000000000000000e+00  2.4605028700968272e-04 7.7000000000000007e-04 0.0000000000000000e+00  2.4100731663376717e-04 7.7000000000000007e-04 0.0000000000000000e+00  2.3591054222582734e-04 7.7000000000000007e-04 0.0000000000000000e+00  2.3081206736256911e-04 7.7000000000000007e-04 0.0000000000000000e+00  2.2570367198903487e-04 7.7000000000000007e-04 0.0000000000000000e+00  2.2058786292237747e-04 7.7000000000000007e-04 0.0000000000000000e+00  2.1543431111971712e-04 7.7000000000000007e-04 0.0000000000000000e+00  2.1028813134761536e-04 7.7000000000000007e-04 0.0000000000000000e+00  2.0514834286808261e-04 7.7000000000000007e-04 0.0000000000000000e+00  1.9998416706971310e-04 7.7000000000000007e-04 0.0000000000000000e+00  1.9482725495519295e-04 7.7000000000000007e-04 0.0000000000000000e+00  1.8967412183742741e-04 7.7000000000000007e-04 0.0000000000000000e+00  1.8453089804864063e-04 7.7000000000000007e-04 0.0000000000000000e+00  1.7940040048291186e-04 7.7000000000000007e-04 0.0000000000000000e+00  1.7425046296359002e-04 7.7000000000000007e-04 0.0000000000000000e+00  1.6911693025234244e-04 7.7000000000000007e-04 0.0000000000000000e+00  1.6399843987698802e-04 7.7000000000000007e-04 0.0000000000000000e+00  1.5888479557595609e-04 7.7000000000000007e-04 0.0000000000000000e+00  1.5378161792819437e-04 7.7000000000000007e-04 0.0000000000000000e+00  1.4869007629873788e-04 7.7000000000000007e-04 0.0000000000000000e+00  1.4360302103582929e-04 7.7000000000000007e-04 0.0000000000000000e+00  1.3852598440901759e-04 7.7000000000000007e-04 0.0000000000000000e+00  1.3345985907002906e-04 7.7000000000000007e-04 0.0000000000000000e+00  1.2840517974646920e-04 7.7000000000000007e-04 0.0000000000000000e+00  1.2334355491880661e-04 7.7000000000000007e-04 0.0000000000000000e+00  1.1829307093182897e-04 7.7000000000000007e-04 0.0000000000000000e+00  1.1324283282248910e-04 7.7000000000000007e-04 0.0000000000000000e+00  1.0819601402305226e-04 7.7000000000000007e-04 0.0000000000000000e+00  1.0314282073391155e-04 7.7000000000000007e-04 0.0000000000000000e+00  9.8087941246769434e-05 7.7000000000000007e-04 0.0000000000000000e+00  9.3028013093939484e-05 7.7000000000000007e-04 0.0000000000000000e+00  8.7957542985433700e-05 7.7000000000000007e-04 0.0000000000000000e+00  8.2873392921429311e-05 7.7000000000000007e-04 0.0000000000000000e+00  7.7773583897117332e-05 7.7000000000000007e-04 0.0000000000000000e+00  7.2653702539412344e-05 7.7000000000000007e-04 0.0000000000000000e+00  6.7511343756244401e-05 7.7000000000000007e-04 0.0000000000000000e+00  6.2345489554859718e-05 7.7000000000000007e-04 0.0000000000000000e+00  5.7147430391711176e-05 7.7000000000000007e-04 0.0000000000000000e+00  5.1914908113959591e-05 7.7000000000000007e-04 0.0000000000000000e+00  4.6651843930453397e-05 7.7000000000000007e-04 0.0000000000000000e+00  4.1348046420616704e-05 7.7000000000000007e-04 0.0000000000000000e+00  3.6005372692398412e-05 7.7000000000000007e-04 0.0000000000000000e+00  3.0621727029439747e-05 7.7000000000000007e-04 0.0000000000000000e+00  2.5181208581665874e-05 7.7000000000000007e-04 0.0000000000000000e+00  1.9719570309469716e-05 7.7000000000000007e-04 0.0000000000000000e+00  1.4211139088293303e-05 7.7000000000000007e-04 0.0000000000000000e+00  8.6642785983222078e-06 7.7000000000000007e-04 0.0000000000000000e+00  3.0777748376643831e-06 7.7000000000000007e-04 0.0000000000000000e+00  -2.5302274609134721e-06 7.7000000000000007e-04 0.0000000000000000e+00  -8.1680699163036667e-06 7.7000000000000007e-04 0.0000000000000000e+00  -1.3781689447541252e-05 7.7000000000000007e-04 0.0000000000000000e+00  -1.9395671890590944e-05 7.7000000000000007e-04 0.0000000000000000e+00  -2.4984421059074258e-05 7.7000000000000007e-04 0.0000000000000000e+00  -3.0538429263993259e-05 7.7000000000000007e-04 0.0000000000000000e+00  -3.6033681506281162e-05 7.7000000000000007e-04 0.0000000000000000e+00  -4.1400950339431048e-05 7.7000000000000007e-04 0.0000000000000000e+00  -4.6639995407952779e-05 7.7000000000000007e-04 0.0000000000000000e+00  -5.1676616121131833e-05 7.7000000000000007e-04 0.0000000000000000e+00  -5.6559168653221588e-05 7.7000000000000007e-04 0.0000000000000000e+00  -6.1269805027913484e-05 7.7000000000000007e-04 0.0000000000000000e+00  -6.5685643709689304e-05 7.7000000000000007e-04 0.0000000000000000e+00  -6.9748369898210596e-05 7.7000000000000007e-04 0.0000000000000000e+00  -7.3493533914539814e-05 7.7000000000000007e-04 0.0000000000000000e+00  -7.6957541542008518e-05 7.7000000000000007e-04 0.0000000000000000e+00  -7.9951114566962736e-05 7.7000000000000007e-04 0.0000000000000000e+00  -8.2613305569047242e-05 7.7000000000000007e-04 0.0000000000000000e+00  -8.4853927998446746e-05 7.7000000000000007e-04 0.0000000000000000e+00  -8.6634839057293044e-05 7.7000000000000007e-04 0.0000000000000000e+00  -8.8018256535564720e-05 7.7000000000000007e-04 0.0000000000000000e+00  -8.9019201587825923e-05 7.7000000000000007e-04 0.0000000000000000e+00  -8.9609251616701164e-05 7.7000000000000007e-04 0.0000000000000000e+00  -8.9800190758682885e-05 7.7000000000000007e-04 0.0000000000000000e+00  -8.9608278722453713e-05 7.7000000000000007e-04 0.0000000000000000e+00  -8.9064832500854738e-05 7.7000000000000007e-04 0.0000000000000000e+00  -8.8243148393203353e-05 7.7000000000000007e-04 0.0000000000000000e+00  -8.7152783424456135e-05 7.7000000000000007e-04 0.0000000000000000e+00  -8.5767005572792303e-05 7.7000000000000007e-04 0.0000000000000000e+00  -8.4128339489960888e-05 7.7000000000000007e-04 0.0000000000000000e+00  -8.2330452184102980e-05 7.7000000000000007e-04 0.0000000000000000e+00  -8.0364904933552888e-05 7.7000000000000007e-04 0.0000000000000000e+00  -7.8255946723698069e-05 7.7000000000000007e-04 0.0000000000000000e+00  -7.5985093692997193e-05 7.7000000000000007e-04 0.0000000000000000e+00  -7.3633314289541635e-05 7.7000000000000007e-04 0.0000000000000000e+00  -7.1202651163334069e-05 7.7000000000000007e-04 0.0000000000000000e+00  -6.8722035320411116e-05 7.7000000000000007e-04 0.0000000000000000e+00  -6.6166136198025043e-05 7.7000000000000007e-04 0.0000000000000000e+00  -6.3599236582872500e-05 7.7000000000000007e-04 0.0000000000000000e+00  -6.1019868928422623e-05 7.7000000000000007e-04 0.0000000000000000e+00  -5.8428217741638539e-05 7.7000000000000007e-04 0.0000000000000000e+00  -5.5838767706893624e-05 7.7000000000000007e-04 0.0000000000000000e+00  -5.3267238492205331e-05 7.7000000000000007e-04 0.0000000000000000e+00  -5.0720428009784348e-05 7.7000000000000007e-04 0.0000000000000000e+00  -4.8174509650127991e-05 7.7000000000000007e-04 0.0000000000000000e+00  -4.5670241504641116e-05 7.7000000000000007e-04 0.0000000000000000e+00  -4.3200215682012750e-05 7.7000000000000007e-04 0.0000000000000000e+00  -4.0768026091688834e-05 7.7000000000000007e-04 0.0000000000000000e+00  -3.8376886353390098e-05 7.7000000000000007e-04 0.0000000000000000e+00  -3.6016036500914787e-05 7.7000000000000007e-04 0.0000000000000000e+00  -3.3696535800998876e-05 7.7000000000000007e-04 0.0000000000000000e+00  -3.1418187244484278e-05 7.7000000000000007e-04 0.0000000000000000e+00  -2.9177503098494314e-05 7.7000000000000007e-04 0.0000000000000000e+00  -2.6976013783724383e-05 7.7000000000000007e-04 0.0000000000000000e+00  -2.4800453869120882e-05 7.7000000000000007e-04 0.0000000000000000e+00  -2.2662617303519341e-05 7.7000000000000007e-04 0.0000000000000000e+00  -2.0554211673422039e-05 7.7000000000000007e-04 0.0000000000000000e+00  -1.8476764552765045e-05 7.7000000000000007e-04 0.0000000000000000e+00  -1.6424109099026739e-05 7.7000000000000007e-04 0.0000000000000000e+00  -1.4397370176864830e-05 7.7000000000000007e-04 0.0000000000000000e+00  -1.2392574129815129e-05 7.7000000000000007e-04 0.0000000000000000e+00  -1.0407144668740384e-05 7.7000000000000007e-04 0.0000000000000000e+00  -8.4394087159422856e-06 7.7000000000000007e-04 0.0000000000000000e+00  -6.4864301973827653e-06 7.7000000000000007e-04 0.0000000000000000e+00  -4.5453521604533547e-06 7.7000000000000007e-04 0.0000000000000000e+00  -2.6125418045907335e-06 7.7000000000000007e-04 0.0000000000000000e+00  -6.8729123383694747e-07 7.7000000000000007e-04 0.0000000000000000e+00  1.2330006279388163e-06 7.7000000000000007e-04 0.0000000000000000e+00  3.1523021157423698e-06 7.7000000000000007e-04 0.0000000000000000e+00  5.0725509828892666e-06 7.7000000000000007e-04 0.0000000000000000e+00  6.9971894113944560e-06 7.7000000000000007e-04 0.0000000000000000e+00  8.9272215687655553e-06 7.7000000000000007e-04 0.0000000000000000e+00  1.0867728151310663e-05 7.7000000000000007e-04 0.0000000000000000e+00  1.2821505294884469e-05 7.7000000000000007e-04 0.0000000000000000e+00  1.4792913174978842e-05 7.7000000000000007e-04 0.0000000000000000e+00  1.6784506585913860e-05 7.7000000000000007e-04 0.0000000000000000e+00  1.8794828539345419e-05 7.7000000000000007e-04 0.0000000000000000e+00  2.0831569078173119e-05 7.7000000000000007e-04 0.0000000000000000e+00  2.2897431470668054e-05 7.7000000000000007e-04 0.0000000000000000e+00  2.4995207532099491e-05 7.7000000000000007e-04 0.0000000000000000e+00  2.7126663459577635e-05 7.7000000000000007e-04 0.0000000000000000e+00  2.9296421617856031e-05 7.7000000000000007e-04 0.0000000000000000e+00  3.1501616101662691e-05 7.7000000000000007e-04 0.0000000000000000e+00  3.3751604808809909e-05 7.7000000000000007e-04 0.0000000000000000e+00  3.6045592595155690e-05 7.7000000000000007e-04 0.0000000000000000e+00  3.8372207444084410e-05 7.7000000000000007e-04 0.0000000000000000e+00  4.0748436480435586e-05 7.7000000000000007e-04 0.0000000000000000e+00  4.3168393496972085e-05 7.7000000000000007e-04 0.0000000000000000e+00  4.5627494669909840e-05 7.7000000000000007e-04 0.0000000000000000e+00  4.8126709071209063e-05 7.7000000000000007e-04 0.0000000000000000e+00  5.0658954605029412e-05 7.7000000000000007e-04 0.0000000000000000e+00  5.3244470528646991e-05 7.7000000000000007e-04 0.0000000000000000e+00  5.5828923876133150e-05 7.7000000000000007e-04 0.0000000000000000e+00  5.8439387086359704e-05 7.7000000000000007e-04 0.0000000000000000e+00  6.1065759543558893e-05 7.7000000000000007e-04 0.0000000000000000e+00  6.3701457573922836e-05 7.7000000000000007e-04 0.0000000000000000e+00  6.6305406998229196e-05 7.7000000000000007e-04 0.0000000000000000e+00  6.8891897297916472e-05 7.7000000000000007e-04 0.0000000000000000e+00  7.1431812497733252e-05 7.7000000000000007e-04 0.0000000000000000e+00  7.3912319844579715e-05 7.7000000000000007e-04 0.0000000000000000e+00  7.6320221686791091e-05 7.7000000000000007e-04 0.0000000000000000e+00  7.8584563829603007e-05 7.7000000000000007e-04 0.0000000000000000e+00  8.0713488914715352e-05 7.7000000000000007e-04 0.0000000000000000e+00  8.2649578863698106e-05 7.7000000000000007e-04 0.0000000000000000e+00  8.4454447025444278e-05 7.7000000000000007e-04 0.0000000000000000e+00  8.6001389132669696e-05 7.7000000000000007e-04 0.0000000000000000e+00  8.7272104855175785e-05 7.7000000000000007e-04 0.0000000000000000e+00  8.8291078677960792e-05 7.7000000000000007e-04 0.0000000000000000e+00  8.8940982861740047e-05 7.7000000000000007e-04 0.0000000000000000e+00  8.9345816611491270e-05 7.7000000000000007e-04 0.0000000000000000e+00  8.9360923284007501e-05 7.7000000000000007e-04 0.0000000000000000e+00  8.8917425217090694e-05 7.7000000000000007e-04 0.0000000000000000e+00  8.8031227762182092e-05 7.7000000000000007e-04 0.0000000000000000e+00  8.6765151367318636e-05 7.7000000000000007e-04 0.0000000000000000e+00  8.5042812069508931e-05 7.7000000000000007e-04 0.0000000000000000e+00  8.2871614532796801e-05 7.7000000000000007e-04 0.0000000000000000e+00  8.0301145895936651e-05 7.7000000000000007e-04 0.0000000000000000e+00  7.7287461429805180e-05 7.7000000000000007e-04 0.0000000000000000e+00  7.4031993800424030e-05 7.7000000000000007e-04 0.0000000000000000e+00  7.0271604266663757e-05 7.7000000000000007e-04 0.0000000000000000e+00  6.6193394362903235e-05 7.7000000000000007e-04 0.0000000000000000e+00  6.1817196414872357e-05 7.7000000000000007e-04 0.0000000000000000e+00  5.7159091280041359e-05 7.7000000000000007e-04 0.0000000000000000e+00  5.2298603911849741e-05 7.7000000000000007e-04 0.0000000000000000e+00  4.7189961219890621e-05 7.7000000000000007e-04 0.0000000000000000e+00  4.1954933605076032e-05 7.7000000000000007e-04 0.0000000000000000e+00  3.6551602734328684e-05 7.7000000000000007e-04 0.0000000000000000e+00  3.1062179528115283e-05 7.7000000000000007e-04 0.0000000000000000e+00  2.5503082203716341e-05 7.7000000000000007e-04 0.0000000000000000e+00  1.9900380549949668e-05 7.7000000000000007e-04 0.0000000000000000e+00  1.4246083853606539e-05 7.7000000000000007e-04 0.0000000000000000e+00  8.5984950368851614e-06 7.7000000000000007e-04 0.0000000000000000e+00  2.9481578604872464e-06 7.7000000000000007e-04 0.0000000000000000e+00  -2.6821007143549284e-06 7.7000000000000007e-04 0.0000000000000000e+00  -8.2858582740313264e-06 7.7000000000000007e-04 0.0000000000000000e+00  -1.3855545669879592e-05 7.7000000000000007e-04 0.0000000000000000e+00  -1.9387563130871113e-05 7.7000000000000007e-04 0.0000000000000000e+00  -2.4877193084561905e-05 7.7000000000000007e-04 0.0000000000000000e+00  -3.0320456171882414e-05 7.7000000000000007e-04 0.0000000000000000e+00  -3.5728896776669600e-05 7.7000000000000007e-04 0.0000000000000000e+00  -4.1089329384231661e-05 7.7000000000000007e-04 0.0000000000000000e+00  -4.6404284482191227e-05 7.7000000000000007e-04 0.0000000000000000e+00  -5.1687634145518135e-05 7.7000000000000007e-04 0.0000000000000000e+00  -5.6928334257844942e-05 7.7000000000000007e-04 0.0000000000000000e+00  -6.2138782356106217e-05 7.7000000000000007e-04 0.0000000000000000e+00  -6.7318214104179517e-05 7.7000000000000007e-04 0.0000000000000000e+00  -7.2471347276949051e-05 7.7000000000000007e-04 0.0000000000000000e+00  -7.7600778385138695e-05 7.7000000000000007e-04 0.0000000000000000e+00  -8.2707032220869615e-05 7.7000000000000007e-04 0.0000000000000000e+00  -8.7798734015250981e-05 7.7000000000000007e-04 0.0000000000000000e+00  -9.2877718239173078e-05 7.7000000000000007e-04 0.0000000000000000e+00  -9.7947520748791096e-05 7.7000000000000007e-04 0.0000000000000000e+00  -1.0300964805683357e-04 7.7000000000000007e-04 0.0000000000000000e+00  -1.0806204416348790e-04 7.7000000000000007e-04 0.0000000000000000e+00  -1.1311446671872144e-04 7.7000000000000007e-04 0.0000000000000000e+00  -1.1816899349090948e-04 7.7000000000000007e-04 0.0000000000000000e+00  -1.2322913853381900e-04 7.7000000000000007e-04 0.0000000000000000e+00  -1.2828266786419907e-04 7.7000000000000007e-04 0.0000000000000000e+00  -1.3334744085813954e-04 7.7000000000000007e-04 0.0000000000000000e+00  -1.3842262946729702e-04 7.7000000000000007e-04 0.0000000000000000e+00  -1.4349605308092814e-04 7.7000000000000007e-04 0.0000000000000000e+00  -1.4858262742644188e-04 7.7000000000000007e-04 0.0000000000000000e+00  -1.5367988147932168e-04 7.7000000000000007e-04 0.0000000000000000e+00  -1.5878929777857938e-04 7.7000000000000007e-04 0.0000000000000000e+00  -1.6390500603491023e-04 7.7000000000000007e-04 0.0000000000000000e+00  -1.6902398970283637e-04 7.7000000000000007e-04 0.0000000000000000e+00  -1.7415362404530360e-04 7.7000000000000007e-04 0.0000000000000000e+00  -1.7929551161609099e-04 7.7000000000000007e-04 0.0000000000000000e+00  -1.8444008644174183e-04 7.7000000000000007e-04 0.0000000000000000e+00  -1.8958859241602097e-04 7.7000000000000007e-04 0.0000000000000000e+00  -1.9474072042559838e-04 7.7000000000000007e-04 0.0000000000000000e+00  -1.9989851708079404e-04 7.7000000000000007e-04 0.0000000000000000e+00  -2.0504986335210512e-04 7.7000000000000007e-04 0.0000000000000000e+00  -2.1020477994735087e-04 7.7000000000000007e-04 0.0000000000000000e+00  -2.1534622597865031e-04 7.7000000000000007e-04 0.0000000000000000e+00  -2.2048756233413046e-04 7.7000000000000007e-04 0.0000000000000000e+00  -2.2562015384893554e-04 7.7000000000000007e-04 0.0000000000000000e+00  -2.3073231624316708e-04 7.7000000000000007e-04 0.0000000000000000e+00  -2.3583094229073575e-04 7.7000000000000007e-04 0.0000000000000000e+00  -2.4091278133130063e-04 7.7000000000000007e-04 0.0000000000000000e+00  -2.4597103332085215e-04 7.7000000000000007e-04 0.0000000000000000e+00  -2.5099956456753287e-04 7.7000000000000007e-04 0.0000000000000000e+00  -2.5601344033809046e-04 7.7000000000000007e-04 0.0000000000000000e+00  -2.6098834819453270e-04 7.7000000000000007e-04 0.0000000000000000e+00  -2.6592741983184946e-04 7.7000000000000007e-04 0.0000000000000000e+00  -2.7082848863133513e-04 7.7000000000000007e-04 0.0000000000000000e+00  -2.7568367852394437e-04 7.7000000000000007e-04 0.0000000000000000e+00  -2.8049988646013964e-04 7.7000000000000007e-04 0.0000000000000000e+00  -2.8527713875771751e-04 7.7000000000000007e-04 0.0000000000000000e+00  -2.8998610071098268e-04 7.7000000000000007e-04 0.0000000000000000e+00  -2.9466340750594584e-04 7.7000000000000007e-04 0.0000000000000000e+00  -2.9922511881881950e-04 7.5619464495547495e-04 0.0000000000000000e+00  -2.9897760992768076e-04 7.4238705402681596e-04 0.0000000000000000e+00  -2.9862876739488966e-04 7.2857738443311967e-04 0.0000000000000000e+00  -2.9808837497558922e-04 7.1476556145689109e-04 0.0000000000000000e+00  -2.9741198027487666e-04 7.0097106665411300e-04 0.0000000000000000e+00  -2.9655104653056276e-04 6.8714450298535952e-04 0.0000000000000000e+00  -2.9555511874401741e-04 6.7334363014318608e-04 0.0000000000000000e+00  -2.9440699824644984e-04 6.5951891354142100e-04 0.0000000000000000e+00  -2.9308384751123136e-04 6.4569534631706504e-04 0.0000000000000000e+00  -2.9159692981301801e-04 6.3188945315570454e-04 0.0000000000000000e+00  -2.8994703651435966e-04 6.1805112156731795e-04 0.0000000000000000e+00  -2.8812677050776890e-04 6.0421826543680611e-04 0.0000000000000000e+00  -2.8613977044931598e-04 5.9036416905261469e-04 0.0000000000000000e+00  -2.8396659105977390e-04 5.7653540576042849e-04 0.0000000000000000e+00  -2.8162497658123386e-04 5.6265700326244548e-04 0.0000000000000000e+00  -2.7909058259976895e-04 5.4875844233729135e-04 0.0000000000000000e+00  -2.7636539873766912e-04 5.3487688149668066e-04 0.0000000000000000e+00  -2.7344785067557166e-04 5.2094694861494245e-04 0.0000000000000000e+00  -2.7032415580983786e-04 5.0702904614468799e-04 0.0000000000000000e+00  -2.6699602523396984e-04 4.9307437588935364e-04 0.0000000000000000e+00  -2.6346352687674278e-04 4.7905569772850191e-04 0.0000000000000000e+00  -2.5969974739512664e-04 4.6506258960714043e-04 0.0000000000000000e+00  -2.5571632689995352e-04 4.5098731396560126e-04 0.0000000000000000e+00  -2.5148350346450928e-04 4.3690155002748863e-04 0.0000000000000000e+00  -2.4702938323833295e-04 4.2273897275419884e-04 0.0000000000000000e+00  -2.4229947081262301e-04 4.0857153308218109e-04 0.0000000000000000e+00  -2.3733484601683494e-04 3.9427847410697598e-04 0.0000000000000000e+00  