<?xml version="1.0"?>
<VTKFile type="UnstructuredGrid"  version="0.1"  >
<UnstructuredGrid>
<Piece  NumberOfPoints="16512" NumberOfCells="32424">
<Points>
<DataArray  type="Float64"  NumberOfComponents="3"  format="ascii">-25 4.9 0  25 4.9 0  25 -4.9 0  -25 -4.9 0  -10 0 0  10 0 0  -24.80000000000034 4.9 0  -24.60000000000068 4.9 0  -24.40000000000101 4.9 0  -24.20000000000135 4.9 0  -24.00000000000169 4.9 0  -23.80000000000203 4.9 0  -23.60000000000237 4.9 0  -23.40000000000271 4.9 0  -23.20000000000304 4.9 0  -23.00000000000338 4.9 0  -22.80000000000372 4.9 0  -22.60000000000406 4.9 0  -22.40000000000439 4.9 0  -22.20000000000473 4.9 0  -22.00000000000507 4.9 0  -21.80000000000541 4.9 0  -21.60000000000575 4.9 0  -21.40000000000608 4.9 0  -21.20000000000642 4.9 0  -21.00000000000676 4.9 0  -20.8000000000071 4.9 0  -20.60000000000744 4.9 0  -20.40000000000777 4.9 0  -20.20000000000811 4.9 0  -20.00000000000845 4.9 0  -19.80000000000879 4.9 0  -19.60000000000912 4.9 0  -19.40000000000946 4.9 0  -19.2000000000098 4.9 0  -19.00000000001039 4.9 0  -18.80000000001108 4.9 0  -18.60000000001231 4.9 0  -18.40000000001371 4.9 0  -18.2000000000154 4.9 0  -18.00000000001716 4.9 0  -17.80000000001892 4.9 0  -17.60000000002067 4.9 0  -17.40000000002243 4.9 0  -17.20000000002419 4.9 0  -17.00000000002595 4.9 0  -16.80000000002771 4.9 0  -16.60000000002947 4.9 0  -16.40000000003123 4.9 0  -16.20000000003299 4.9 0  -16.00000000003472 4.9 0  -15.80000000003612 4.9 0  -15.60000000003748 4.9 0  -15.40000000003853 4.9 0  -15.20000000003958 4.9 0  -15.00000000004063 4.9 0  -14.80000000004168 4.9 0  -14.60000000004273 4.9 0  -14.40000000004377 4.9 0  -14.20000000004482 4.9 0  -14.00000000004587 4.9 0  -13.80000000004692 4.9 0  -13.60000000004797 4.9 0  -13.40000000004902 4.9 0  -13.20000000005007 4.9 0  -13.00000000005111 4.9 0  -12.80000000005216 4.9 0  -12.60000000005321 4.9 0  -12.40000000005426 4.9 0  -12.20000000005531 4.9 0  -12.00000000005636 4.9 0  -11.80000000005741 4.9 0  -11.60000000005846 4.9 0  -11.4000000000595 4.9 0  -11.20000000006055 4.9 0  -11.0000000000616 4.9 0  -10.80000000006265 4.9 0  -10.6000000000637 4.9 0  -10.40000000006475 4.9 0  -10.2000000000658 4.9 0  -10.00000000006684 4.9 0  -9.800000000067891 4.9 0  -9.60000000006894 4.9 0  -9.400000000069989 4.9 0  -9.200000000070727 4.9 0  -9.00000000007142 4.9 0  -8.800000000071787 4.9 0  -8.600000000072125 4.9 0  -8.400000000072467 4.9 0  -8.200000000072805 4.9 0  -8.000000000073143 4.9 0  -7.800000000073481 4.9 0  -7.60000000007382 4.9 0  -7.400000000074154 4.9 0  -7.200000000074493 4.9 0  -7.000000000074831 4.9 0  -6.800000000075173 4.9 0  -6.600000000075511 4.9 0  -6.400000000075849 4.9 0  -6.200000000076187 4.9 0  -6.000000000076525 4.9 0  -5.800000000076867 4.9 0  -5.600000000077205 4.9 0  -5.400000000077544 4.9 0  -5.200000000077882 4.9 0  -5.00000000007822 4.9 0  -4.800000000078558 4.9 0  -4.600000000078897 4.9 0  -4.400000000079235 4.9 0  -4.200000000079573 4.9 0  -4.000000000079908 4.9 0  -3.800000000080246 4.9 0  -3.600000000080588 4.9 0  -3.400000000080926 4.9 0  -3.200000000081264 4.9 0  -3.000000000081606 4.9 0  -2.800000000081944 4.9 0  -2.600000000082282 4.9 0  -2.40000000008262 4.9 0  -2.200000000082959 4.9 0  -2.000000000083297 4.9 0  -1.800000000083635 4.9 0  -1.600000000083973 4.9 0  -1.400000000084312 4.9 0  -1.20000000008465 4.9 0  -1.000000000084988 4.9 0  -0.8000000000853262 4.9 0  -0.6000000000856645 4.9 0  -0.4000000000860027 4.9 0  -0.2000000000863409 4.9 0  -8.667910833537462e-11 4.9 0  0.1999999999129827 4.9 0  0.3999999999126409 4.9 0  0.5999999999123027 4.9 0  0.7999999999119716 4.9 0  0.9999999999116262 4.9 0  1.199999999911295 4.9 0  1.39999999991095 4.9 0  1.599999999910619 4.9 0  1.799999999910273 4.9 0  1.999999999909939 4.9 0  2.199999999909597 4.9 0  2.399999999909262 4.9 0  2.599999999908921 4.9 0  2.799999999908582 4.9 0  2.999999999908244 4.9 0  3.199999999907906 4.9 0  3.399999999907564 4.9 0  3.599999999907226 4.9 0  3.799999999906888 4.9 0  3.999999999906549 4.9 0  4.199999999906218 4.9 0  4.399999999905873 4.9 0  4.599999999905542 4.9 0  4.799999999905197 4.9 0  4.999999999904865 4.9 0  5.19999999990452 4.9 0  5.399999999904182 4.9 0  5.599999999903844 4.9 0  5.799999999903505 4.9 0  5.999999999903167 4.9 0  6.199999999902829 4.9 0  6.399999999902491 4.9 0  6.599999999902153 4.9 0  6.799999999902379 4.9 0  6.999999999902752 4.9 0  7.199999999903724 4.9 0  7.399999999904807 4.9 0  7.59999999990589 4.9 0  7.799999999906966 4.9 0  7.999999999908056 4.9 0  8.199999999909132 4.9 0  8.399999999910214 4.9 0  8.59999999991129 4.9 0  8.79999999991238 4.9 0  8.999999999913456 4.9 0  9.199999999914539 4.9 0  9.399999999915622 4.9 0  9.599999999916704 4.9 0  9.79999999991778 4.9 0  9.99999999991887 4.9 0  10.19999999991995 4.9 0  10.39999999992103 4.9 0  10.59999999992212 4.9 0  10.79999999992319 4.9 0  10.99999999992428 4.9 0  11.19999999992536 4.9 0  11.39999999992644 4.9 0  11.59999999992752 4.9 0  11.7999999999286 4.9 0  11.99999999992968 4.9 0  12.19999999993077 4.9 0  12.39999999993184 4.9 0  12.59999999993293 4.9 0  12.79999999993401 4.9 0  12.99999999993509 4.9 0  13.19999999993617 4.9 0  13.39999999993726 4.9 0  13.59999999993834 4.9 0  13.79999999993942 4.9 0  13.99999999994051 4.9 0  14.19999999994158 4.9 0  14.39999999994266 4.9 0  14.59999999994375 4.9 0  14.79999999994483 4.9 0  14.99999999994591 4.9 0  15.199999999947 4.9 0  15.39999999994807 4.9 0  15.59999999994915 4.9 0  15.79999999995024 4.9 0  15.99999999995132 4.9 0  16.1999999999524 4.9 0  16.39999999995349 4.9 0  16.59999999995456 4.9 0  16.79999999995565 4.9 0  16.99999999995674 4.9 0  17.19999999995781 4.9 0  17.39999999995889 4.9 0  17.59999999995997 4.9 0  17.79999999996106 4.9 0  17.99999999996214 4.9 0  18.19999999996322 4.9 0  18.3999999999643 4.9 0  18.59999999996538 4.9 0  18.79999999996646 4.9 0  18.99999999996755 4.9 0  19.19999999996863 4.9 0  19.39999999996971 4.9 0  19.59999999997079 4.9 0  19.79999999997187 4.9 0  19.99999999997296 4.9 0  20.19999999997404 4.9 0  20.39999999997512 4.9 0  20.5999999999762 4.9 0  20.79999999997728 4.9 0  20.99999999997836 4.9 0  21.19999999997945 4.9 0  21.39999999998052 4.9 0  21.59999999998161 4.9 0  21.79999999998269 4.9 0  21.99999999998377 4.9 0  22.19999999998485 4.9 0  22.39999999998594 4.9 0  22.59999999998701 4.9 0  22.7999999999881 4.9 0  22.99999999998919 4.9 0  23.19999999999026 4.9 0  23.39999999999135 4.9 0  23.59999999999243 4.9 0  23.79999999999351 4.9 0  23.99999999999459 4.9 0  24.19999999999568 4.9 0  24.39999999999675 4.9 0  24.59999999999783 4.9 0  24.79999999999892 4.9 0  25 4.700000000000415 0  25 4.500000000000868 0  25 4.300000000001562 0  25 4.100000000001831 0  25 3.900000000002072 0  25 3.700000000002459 0  25 3.500000000003038 0  25 3.300000000003653 0  25 3.100000000004294 0  25 2.900000000004838 0  25 2.700000000005293 0  25 2.500000000005957 0  25 2.300000000006508 0  25 2.100000000007153 0  25 1.900000000007722 0  25 1.700000000008417 0  25 1.500000000008938 0  25 1.30000000000963 0  25 1.100000000010154 0  25 0.9000000000108268 0  25 0.7000000000114559 0  25 0.5000000000119762 0  25 0.3000000000126564 0  25 0.1000000000131926 0  25 -0.09999999998679243 0  25 -0.2999999999874587 0  25 -0.4999999999878586 0  25 -0.6999999999884441 0  25 -0.899999999988804 0  25 -1.099999999989427 0  25 -1.299999999989749 0  25 -1.499999999990411 0  25 -1.69999999999073 0  25 -1.899999999991396 0  25 -2.099999999991715 0  25 -2.299999999992381 0  25 -2.499999999993047 0  25 -2.699999999993714 0  25 -2.899999999994227 0  25 -3.099999999994698 0  25 -3.299999999994673 0  25 -3.499999999995339 0  25 -3.699999999996004 0  25 -3.89999999999667 0  25 -4.099999999997335 0  25 -4.299999999998002 0  25 -4.499999999998668 0  25 -4.699999999999335 0  24.80000000000034 -4.9 0  24.60000000000068 -4.9 0  24.40000000000101 -4.9 0  24.20000000000135 -4.9 0  24.00000000000169 -4.9 0  23.80000000000203 -4.9 0  23.60000000000237 -4.9 0  23.40000000000271 -4.9 0  23.20000000000304 -4.9 0  23.00000000000338 -4.9 0  22.80000000000372 -4.9 0  22.60000000000406 -4.9 0  22.40000000000439 -4.9 0  22.20000000000473 -4.9 0  22.00000000000507 -4.9 0  21.80000000000541 -4.9 0  21.60000000000575 -4.9 0  21.40000000000608 -4.9 0  21.20000000000642 -4.9 0  21.00000000000676 -4.9 0  20.8000000000071 -4.9 0  20.60000000000744 -4.9 0  20.40000000000777 -4.9 0  20.20000000000811 -4.9 0  20.00000000000845 -4.9 0  19.80000000000879 -4.9 0  19.60000000000912 -4.9 0  19.40000000000946 -4.9 0  19.2000000000098 -4.9 0  19.00000000001039 -4.9 0  18.80000000001108 -4.9 0  18.60000000001231 -4.9 0  18.40000000001371 -4.9 0  18.2000000000154 -4.9 0  18.00000000001716 -4.9 0  17.80000000001892 -4.9 0  17.60000000002067 -4.9 0  17.40000000002243 -4.9 0  17.20000000002419 -4.9 0  17.00000000002595 -4.9 0  16.80000000002771 -4.9 0  16.60000000002947 -4.9 0  16.40000000003123 -4.9 0  16.20000000003299 -4.9 0  16.00000000003472 -4.9 0  15.80000000003612 -4.9 0  15.60000000003748 -4.9 0  15.40000000003853 -4.9 0  15.20000000003958 -4.9 0  15.00000000004063 -4.9 0  14.80000000004168 -4.9 0  14.60000000004273 -4.9 0  14.40000000004377 -4.9 0  14.20000000004482 -4.9 0  14.00000000004587 -4.9 0  13.80000000004692 -4.9 0  13.60000000004797 -4.9 0  13.40000000004902 -4.9 0  13.20000000005007 -4.9 0  13.00000000005111 -4.9 0  12.80000000005216 -4.9 0  12.60000000005321 -4.9 0  12.40000000005426 -4.9 0  12.20000000005531 -4.9 0  12.00000000005636 -4.9 0  11.80000000005741 -4.9 0  11.60000000005846 -4.9 0  11.4000000000595 -4.9 0  11.20000000006055 -4.9 0  11.0000000000616 -4.9 0  10.80000000006265 -4.9 0  10.6000000000637 -4.9 0  10.40000000006475 -4.9 0  10.2000000000658 -4.9 0  10.00000000006684 -4.9 0  9.800000000067891 -4.9 0  9.60000000006894 -4.9 0  9.400000000069989 -4.9 0  9.200000000070727 -4.9 0  9.00000000007142 -4.9 0  8.800000000071787 -4.9 0  8.600000000072125 -4.9 0  8.400000000072467 -4.9 0  8.200000000072805 -4.9 0  8.000000000073143 -4.9 
[...]
<PointData  Vectors="f_7"> 
<DataArray  type="Float64"  Name="f_7"  NumberOfComponents="3" format="ascii">2.5365866643988898e-04 6.4000000000000005e-04 0.0000000000000000e+00  -2.5357997620216081e-04 6.4000000000000005e-04 0.0000000000000000e+00  0.0000000000000000e+00 0.0000000000000000e+00 0.0000000000000000e+00  0.0000000000000000e+00 0.0000000000000000e+00 0.0000000000000000e+00  3.5403906152106312e-05 3.2264337596520808e-04 0.0000000000000000e+00  -3.5560058804301792e-05 3.1627216967638312e-04 0.0000000000000000e+00  2.4981605970664125e-04 6.4000000000000005e-04 0.0000000000000000e+00  2.4594885992948581e-04 6.4000000000000005e-04 0.0000000000000000e+00  2.4206064731669246e-04 6.4000000000000005e-04 0.0000000000000000e+00  2.3810146123038716e-04 6.4000000000000005e-04 0.0000000000000000e+00  2.3412475719689158e-04 6.4000000000000005e-04 0.0000000000000000e+00  2.3009544006400573e-04 6.4000000000000005e-04 0.0000000000000000e+00  2.2604264351012540e-04 6.4000000000000005e-04 0.0000000000000000e+00  2.2194554620121192e-04 6.4000000000000005e-04 0.0000000000000000e+00  2.1783727027369919e-04 6.4000000000000005e-04 0.0000000000000000e+00  2.1369078066360998e-04 6.4000000000000005e-04 0.0000000000000000e+00  2.0952196789498866e-04 6.4000000000000005e-04 0.0000000000000000e+00  2.0534914461075871e-04 6.4000000000000005e-04 0.0000000000000000e+00  2.0113172213337990e-04 6.4000000000000005e-04 0.0000000000000000e+00  1.9691434854048951e-04 6.4000000000000005e-04 0.0000000000000000e+00  1.9268994917636751e-04 6.4000000000000005e-04 0.0000000000000000e+00  1.8846089062123087e-04 6.4000000000000005e-04 0.0000000000000000e+00  1.8420124890182325e-04 6.4000000000000005e-04 0.0000000000000000e+00  1.7994991901301399e-04 6.4000000000000005e-04 0.0000000000000000e+00  1.7570565901666455e-04 6.4000000000000005e-04 0.0000000000000000e+00  1.7144262820225018e-04 6.4000000000000005e-04 0.0000000000000000e+00  1.6718800095868888e-04 6.4000000000000005e-04 0.0000000000000000e+00  1.6293870819683042e-04 6.4000000000000005e-04 0.0000000000000000e+00  1.5870022436280067e-04 6.4000000000000005e-04 0.0000000000000000e+00  1.5447487083839525e-04 6.4000000000000005e-04 0.0000000000000000e+00  1.5023504952034534e-04 6.4000000000000005e-04 0.0000000000000000e+00  1.4601214419283543e-04 6.4000000000000005e-04 0.0000000000000000e+00  1.4180476068796735e-04 6.4000000000000005e-04 0.0000000000000000e+00  1.3760427451480303e-04 6.4000000000000005e-04 0.0000000000000000e+00  1.3341564220461990e-04 6.4000000000000005e-04 0.0000000000000000e+00  1.2924018029340952e-04 6.4000000000000005e-04 0.0000000000000000e+00  1.2507186330060517e-04 6.4000000000000005e-04 0.0000000000000000e+00  1.2091567235260616e-04 6.4000000000000005e-04 0.0000000000000000e+00  1.1677217782670796e-04 6.4000000000000005e-04 0.0000000000000000e+00  1.1264266611570621e-04 6.4000000000000005e-04 0.0000000000000000e+00  1.0851052459006823e-04 6.4000000000000005e-04 0.0000000000000000e+00  1.0439274013738259e-04 6.4000000000000005e-04 0.0000000000000000e+00  1.0027967271474930e-04 6.4000000000000005e-04 0.0000000000000000e+00  9.6174805854286612e-05 6.4000000000000005e-04 0.0000000000000000e+00  9.2068808878871883e-05 6.4000000000000005e-04 0.0000000000000000e+00  8.7966976632420529e-05 6.4000000000000005e-04 0.0000000000000000e+00  8.3866701502380137e-05 6.4000000000000005e-04 0.0000000000000000e+00  7.9763470816261590e-05 6.4000000000000005e-04 0.0000000000000000e+00  7.5654899561964419e-05 6.4000000000000005e-04 0.0000000000000000e+00  7.1539447346339477e-05 6.4000000000000005e-04 0.0000000000000000e+00  6.7413719752027523e-05 6.4000000000000005e-04 0.0000000000000000e+00  6.3276207003526511e-05 6.4000000000000005e-04 0.0000000000000000e+00  5.9125777295432813e-05 6.4000000000000005e-04 0.0000000000000000e+00  5.4956204226144446e-05 6.4000000000000005e-04 0.0000000000000000e+00  5.0765827803127558e-05 6.4000000000000005e-04 0.0000000000000000e+00  4.6556965028151986e-05 6.4000000000000005e-04 0.0000000000000000e+00  4.2322121357569412e-05 6.4000000000000005e-04 0.0000000000000000e+00  3.8061814699776087e-05 6.4000000000000005e-04 0.0000000000000000e+00  3.3774914327108463e-05 6.4000000000000005e-04 0.0000000000000000e+00  2.9450456980397074e-05 6.4000000000000005e-04 0.0000000000000000e+00  2.5111635705512544e-05 6.4000000000000005e-04 0.0000000000000000e+00  2.0741279777543686e-05 6.4000000000000005e-04 0.0000000000000000e+00  1.6344623543587106e-05 6.4000000000000005e-04 0.0000000000000000e+00  1.1920527998179759e-05 6.4000000000000005e-04 0.0000000000000000e+00  7.4810716358415492e-06 6.4000000000000005e-04 0.0000000000000000e+00  3.0201676169584539e-06 6.4000000000000005e-04 0.0000000000000000e+00  -1.4246263724699545e-06 6.4000000000000005e-04 0.0000000000000000e+00  -5.8708107492018434e-06 6.4000000000000005e-04 0.0000000000000000e+00  -1.0300907749217026e-05 6.4000000000000005e-04 0.0000000000000000e+00  -1.4708354386983841e-05 6.4000000000000005e-04 0.0000000000000000e+00  -1.9077237965718301e-05 6.4000000000000005e-04 0.0000000000000000e+00  -2.3357900236466664e-05 6.4000000000000005e-04 0.0000000000000000e+00  -2.7551195529933330e-05 6.4000000000000005e-04 0.0000000000000000e+00  -3.1604577203289286e-05 6.4000000000000005e-04 0.0000000000000000e+00  -3.5552580734085191e-05 6.4000000000000005e-04 0.0000000000000000e+00  -3.9382271245420368e-05 6.4000000000000005e-04 0.0000000000000000e+00  -4.3006523925082593e-05 6.4000000000000005e-04 0.0000000000000000e+00  -4.6383327295036952e-05 6.4000000000000005e-04 0.0000000000000000e+00  -4.9537371304936162e-05 6.4000000000000005e-04 0.0000000000000000e+00  -5.2494533562969634e-05 6.4000000000000005e-04 0.0000000000000000e+00  -5.5115901563922330e-05 6.4000000000000005e-04 0.0000000000000000e+00  -5.7502089560584263e-05 6.4000000000000005e-04 0.0000000000000000e+00  -5.9586345469551561e-05 6.4000000000000005e-04 0.0000000000000000e+00  -6.1337778031689597e-05 6.4000000000000005e-04 0.0000000000000000e+00  -6.2799658882114646e-05 6.4000000000000005e-04 0.0000000000000000e+00  -6.3980553122234342e-05 6.4000000000000005e-04 0.0000000000000000e+00  -6.4856245078211730e-05 6.4000000000000005e-04 0.0000000000000000e+00  -6.5431824218341368e-05 6.4000000000000005e-04 0.0000000000000000e+00  -6.5715541641548958e-05 6.4000000000000005e-04 0.0000000000000000e+00  -6.5726007875862316e-05 6.4000000000000005e-04 0.0000000000000000e+00  -6.5517148470798769e-05 6.4000000000000005e-04 0.0000000000000000e+00  -6.5091932856392844e-05 6.4000000000000005e-04 0.0000000000000000e+00  -6.4424344113106925e-05 6.4000000000000005e-04 0.0000000000000000e+00  -6.3541633196410717e-05 6.4000000000000005e-04 0.0000000000000000e+00  -6.2517454652170768e-05 6.4000000000000005e-04 0.0000000000000000e+00  -6.1341830160856434e-05 6.4000000000000005e-04 0.0000000000000000e+00  -6.0029113222305294e-05 6.4000000000000005e-04 0.0000000000000000e+00  -5.8561733214911458e-05 6.4000000000000005e-04 0.0000000000000000e+00  -5.7004683953087666e-05 6.4000000000000005e-04 0.0000000000000000e+00  -5.5357589600053349e-05 6.4000000000000005e-04 0.0000000000000000e+00  -5.3644224238218512e-05 6.4000000000000005e-04 0.0000000000000000e+00  -5.1837089756326014e-05 6.4000000000000005e-04 0.0000000000000000e+00  -4.9998648275911283e-05 6.4000000000000005e-04 0.0000000000000000e+00  -4.8124139416302296e-05 6.4000000000000005e-04 0.0000000000000000e+00  -4.6211828077353475e-05 6.4000000000000005e-04 0.0000000000000000e+00  -4.4277075745920058e-05 6.4000000000000005e-04 0.0000000000000000e+00  -4.2335846193595162e-05 6.4000000000000005e-04 0.0000000000000000e+00  -4.0394232894710563e-05 6.4000000000000005e-04 0.0000000000000000e+00  -3.8431120510124271e-05 6.4000000000000005e-04 0.0000000000000000e+00  -3.6487536030639944e-05 6.4000000000000005e-04 0.0000000000000000e+00  -3.4556572904027061e-05 6.4000000000000005e-04 0.0000000000000000e+00  -3.2642061673346982e-05 6.4000000000000005e-04 0.0000000000000000e+00  -3.0750668084326571e-05 6.4000000000000005e-04 0.0000000000000000e+00  -2.8871559447472081e-05 6.4000000000000005e-04 0.0000000000000000e+00  -2.7019233344799060e-05 6.4000000000000005e-04 0.0000000000000000e+00  -2.5192554809426955e-05 6.4000000000000005e-04 0.0000000000000000e+00  -2.3390286665963453e-05 6.4000000000000005e-04 0.0000000000000000e+00  -2.1615626498667637e-05 6.4000000000000005e-04 0.0000000000000000e+00  -1.9856255953674980e-05 6.4000000000000005e-04 0.0000000000000000e+00  -1.8124681549720474e-05 6.4000000000000005e-04 0.0000000000000000e+00  -1.6415070413129142e-05 6.4000000000000005e-04 0.0000000000000000e+00  -1.4728351353534322e-05 6.4000000000000005e-04 0.0000000000000000e+00  -1.3060775892424640e-05 6.4000000000000005e-04 0.0000000000000000e+00  -1.1413615053272565e-05 6.4000000000000005e-04 0.0000000000000000e+00  -9.7842831186395027e-06 6.4000000000000005e-04 0.0000000000000000e+00  -8.1712500658213437e-06 6.4000000000000005e-04 0.0000000000000000e+00  -6.5737275690539338e-06 6.4000000000000005e-04 0.0000000000000000e+00  -4.9898156401918386e-06 6.4000000000000005e-04 0.0000000000000000e+00  -3.4181134279076649e-06 6.4000000000000005e-04 0.0000000000000000e+00  -1.8554685519581345e-06 6.4000000000000005e-04 0.0000000000000000e+00  -3.0212463927563575e-07 6.4000000000000005e-04 0.0000000000000000e+00  1.2436850990511501e-06 6.4000000000000005e-04 0.0000000000000000e+00  2.7839027839373713e-06 6.4000000000000005e-04 0.0000000000000000e+00  4.3211793153577866e-06 6.4000000000000005e-04 0.0000000000000000e+00  5.8578926849623332e-06 6.4000000000000005e-04 0.0000000000000000e+00  7.3925958902195919e-06 6.4000000000000005e-04 0.0000000000000000e+00  8.9310848549788646e-06 6.4000000000000005e-04 0.0000000000000000e+00  1.0474917123597901e-05 6.4000000000000005e-04 0.0000000000000000e+00  1.2027238537982869e-05 6.4000000000000005e-04 0.0000000000000000e+00  1.3591537976967901e-05 6.4000000000000005e-04 0.0000000000000000e+00  1.5164541346168187e-05 6.4000000000000005e-04 0.0000000000000000e+00  1.6754308646422279e-05 6.4000000000000005e-04 0.0000000000000000e+00  1.8362168937597270e-05 6.4000000000000005e-04 0.0000000000000000e+00  1.9991207293519520e-05 6.4000000000000005e-04 0.0000000000000000e+00  2.1642300669132316e-05 6.4000000000000005e-04 0.0000000000000000e+00  2.3319792787781293e-05 6.4000000000000005e-04 0.0000000000000000e+00  2.5020259896889679e-05 6.4000000000000005e-04 0.0000000000000000e+00  2.6752302284566357e-05 6.4000000000000005e-04 0.0000000000000000e+00  2.8515836554712967e-05 6.4000000000000005e-04 0.0000000000000000e+00  3.0298004849809905e-05 6.4000000000000005e-04 0.0000000000000000e+00  3.2115542122540666e-05 6.4000000000000005e-04 0.0000000000000000e+00  3.3962921908860420e-05 6.4000000000000005e-04 0.0000000000000000e+00  3.5832374255660451e-05 6.4000000000000005e-04 0.0000000000000000e+00  3.7726091731575438e-05 6.4000000000000005e-04 0.0000000000000000e+00  3.9637709289595177e-05 6.4000000000000005e-04 0.0000000000000000e+00  4.1580805238952352e-05 6.4000000000000005e-04 0.0000000000000000e+00  4.3510571734449580e-05 6.4000000000000005e-04 0.0000000000000000e+00  4.5446869687320916e-05 6.4000000000000005e-04 0.0000000000000000e+00  4.7380953912090204e-05 6.4000000000000005e-04 0.0000000000000000e+00  4.9308585274935121e-05 6.4000000000000005e-04 0.0000000000000000e+00  5.1189150074181530e-05 6.4000000000000005e-04 0.0000000000000000e+00  5.3038433950114025e-05 6.4000000000000005e-04 0.0000000000000000e+00  5.4830719944753047e-05 6.4000000000000005e-04 0.0000000000000000e+00  5.6554207874984608e-05 6.4000000000000005e-04 0.0000000000000000e+00  5.8198127894730167e-05 6.4000000000000005e-04 0.0000000000000000e+00  5.9705230682454616e-05 6.4000000000000005e-04 0.0000000000000000e+00  6.1081983993564737e-05 6.4000000000000005e-04 0.0000000000000000e+00  6.2283887955054225e-05 6.4000000000000005e-04 0.0000000000000000e+00  6.3366653847016571e-05 6.4000000000000005e-04 0.0000000000000000e+00  6.4226118234903088e-05 6.4000000000000005e-04 0.0000000000000000e+00  6.4852122768645451e-05 6.4000000000000005e-04 0.0000000000000000e+00  6.5269025167977404e-05 6.4000000000000005e-04 0.0000000000000000e+00  6.5386434495688479e-05 6.4000000000000005e-04 0.0000000000000000e+00  6.5306806389883661e-05 6.4000000000000005e-04 0.0000000000000000e+00  6.4919921619789077e-05 6.4000000000000005e-04 0.0000000000000000e+00  6.4178099098864119e-05 6.4000000000000005e-04 0.0000000000000000e+00  6.3098239282613998e-05 6.4000000000000005e-04 0.0000000000000000e+00  6.1732778495870061e-05 6.4000000000000005e-04 0.0000000000000000e+00  6.0027824371047628e-05 6.4000000000000005e-04 0.0000000000000000e+00  5.7992478391479774e-05 6.4000000000000005e-04 0.0000000000000000e+00  5.5666938585763518e-05 6.4000000000000005e-04 0.0000000000000000e+00  5.3020183550225092e-05 6.4000000000000005e-04 0.0000000000000000e+00  5.0201911144567336e-05 6.4000000000000005e-04 0.0000000000000000e+00  4.7021088483764528e-05 6.4000000000000005e-04 0.0000000000000000e+00  4.3616615709050080e-05 6.4000000000000005e-04 0.0000000000000000e+00  4.0003338269574640e-05 6.4000000000000005e-04 0.0000000000000000e+00  3.6193619362304076e-05 6.4000000000000005e-04 0.0000000000000000e+00  3.2244745552118365e-05 6.4000000000000005e-04 0.0000000000000000e+00  2.8123504719397212e-05 6.4000000000000005e-04 0.0000000000000000e+00  2.3917407175470510e-05 6.4000000000000005e-04 0.0000000000000000e+00  1.9596820469985223e-05 6.4000000000000005e-04 0.0000000000000000e+00  1.5218954256637133e-05 6.4000000000000005e-04 0.0000000000000000e+00  1.0795554769661273e-05 6.4000000000000005e-04 0.0000000000000000e+00  6.3445690150266673e-06 6.4000000000000005e-04 0.0000000000000000e+00  1.8600393087380089e-06 6.4000000000000005e-04 0.0000000000000000e+00  -2.6174769814714638e-06 6.4000000000000005e-04 0.0000000000000000e+00  -7.0948690682505257e-06 6.4000000000000005e-04 0.0000000000000000e+00  -1.1557023314930188e-05 6.4000000000000005e-04 0.0000000000000000e+00  -1.5999535633063464e-05 6.4000000000000005e-04 0.0000000000000000e+00  -2.0417656509946559e-05 6.4000000000000005e-04 0.0000000000000000e+00  -2.4809293033455081e-05 6.4000000000000005e-04 0.0000000000000000e+00  -2.9171769565470985e-05 6.4000000000000005e-04 0.0000000000000000e+00  -3.3502765645563347e-05 6.4000000000000005e-04 0.0000000000000000e+00  -3.7809537037704058e-05 6.4000000000000005e-04 0.0000000000000000e+00  -4.2085356084441224e-05 6.4000000000000005e-04 0.0000000000000000e+00  -4.6331614237645319e-05 6.4000000000000005e-04 0.0000000000000000e+00  -5.0556717267009664e-05 6.4000000000000005e-04 0.0000000000000000e+00  -5.4754849162282860e-05 6.4000000000000005e-04 0.0000000000000000e+00  -5.8934757674813029e-05 6.4000000000000005e-04 0.0000000000000000e+00  -6.3096071661772037e-05 6.4000000000000005e-04 0.0000000000000000e+00  -6.7242626850420574e-05 6.4000000000000005e-04 0.0000000000000000e+00  -7.1376261467488356e-05 6.4000000000000005e-04 0.0000000000000000e+00  -7.5497368965209404e-05 6.4000000000000005e-04 0.0000000000000000e+00  -7.9612449197943080e-05 6.4000000000000005e-04 0.0000000000000000e+00  -8.3723094022029242e-05 6.4000000000000005e-04 0.0000000000000000e+00  -8.7832102813089485e-05 6.4000000000000005e-04 0.0000000000000000e+00  -9.1940188540971508e-05 6.4000000000000005e-04 0.0000000000000000e+00  -9.6044681133866625e-05 6.4000000000000005e-04 0.0000000000000000e+00  -1.0015491092938099e-04 6.4000000000000005e-04 0.0000000000000000e+00  -1.0427159211029301e-04 6.4000000000000005e-04 0.0000000000000000e+00  -1.0839790288456889e-04 6.4000000000000005e-04 0.0000000000000000e+00  -1.1252214037047217e-04 6.4000000000000005e-04 0.0000000000000000e+00  -1.1666053798476483e-04 6.4000000000000005e-04 0.0000000000000000e+00  -1.2081204427595110e-04 6.4000000000000005e-04 0.0000000000000000e+00  -1.2496541815743575e-04 6.4000000000000005e-04 0.0000000000000000e+00  -1.2913352566087203e-04 6.4000000000000005e-04 0.0000000000000000e+00  -1.3331393605721725e-04 6.4000000000000005e-04 0.0000000000000000e+00  -1.3750781552367272e-04 6.4000000000000005e-04 0.0000000000000000e+00  -1.4171006853863231e-04 6.4000000000000005e-04 0.0000000000000000e+00  -1.4591817941684998e-04 6.4000000000000005e-04 0.0000000000000000e+00  -1.5013785489670101e-04 6.4000000000000005e-04 0.0000000000000000e+00  -1.5437048657143028e-04 6.4000000000000005e-04 0.0000000000000000e+00  -1.5860806991630739e-04 6.4000000000000005e-04 0.0000000000000000e+00  -1.6285128721645593e-04 6.4000000000000005e-04 0.0000000000000000e+00  -1.6709993040266204e-04 6.4000000000000005e-04 0.0000000000000000e+00  -1.7135539890422721e-04 6.4000000000000005e-04 0.0000000000000000e+00  -1.7560747686214644e-04 6.4000000000000005e-04 0.0000000000000000e+00  -1.7986464242847246e-04 6.4000000000000005e-04 0.0000000000000000e+00  -1.8411203572883176e-04 6.4000000000000005e-04 0.0000000000000000e+00  -1.8836120548089760e-04 6.4000000000000005e-04 0.0000000000000000e+00  -1.9260463145670775e-04 6.4000000000000005e-04 0.0000000000000000e+00  -1.9683229084514861e-04 6.4000000000000005e-04 0.0000000000000000e+00  -2.0104992249848596e-04 6.4000000000000005e-04 0.0000000000000000e+00  -2.0525464229286455e-04 6.4000000000000005e-04 0.0000000000000000e+00  -2.0944059853332495e-04 6.4000000000000005e-04 0.0000000000000000e+00  -2.1360248660463136e-04 6.4000000000000005e-04 0.0000000000000000e+00  -2.1775297438068953e-04 6.4000000000000005e-04 0.0000000000000000e+00  -2.2187127507404346e-04 6.4000000000000005e-04 0.0000000000000000e+00  -2.2595990488397967e-04 6.4000000000000005e-04 0.0000000000000000e+00  -2.3001689399411446e-04 6.4000000000000005e-04 0.0000000000000000e+00  -2.3403532435119695e-04 6.4000000000000005e-04 0.0000000000000000e+00  -2.3802095997456241e-04 6.4000000000000005e-04 0.0000000000000000e+00  -2.4197374631192731e-04 6.4000000000000005e-04 0.0000000000000000e+00  -2.4586805178246064e-04 6.4000000000000005e-04 0.0000000000000000e+00  -2.4973535658717017e-04 6.4000000000000005e-04 0.0000000000000000e+00  -2.5350280356030609e-04 6.2859326110981334e-04 0.0000000000000000e+00  -2.5328846847343550e-04 6.1718438128838303e-04 0.0000000000000000e+00  -2.5298631186012856e-04 6.0577338549385861e-04 0.0000000000000000e+00  -2.5251847001144141e-04 5.9436007815754982e-04 0.0000000000000000e+00  -2.5193300218959939e-04 5.8296103536362523e-04 0.0000000000000000e+00  -2.5118791205000946e-04 5.7153361584809251e-04 0.0000000000000000e+00  -2.5032620393285529e-04 5.6012743743439838e-04 0.0000000000000000e+00  -2.4933322505468335e-04 5.4869953627802355e-04 0.0000000000000000e+00  -2.4818934125732411e-04 5.3727141601534367e-04 0.0000000000000000e+00  -2.4690407901748081e-04 5.2585710696867721e-04 0.0000000000000000e+00  -2.4547905585474932e-04 5.1441337297495476e-04 0.0000000000000000e+00  -2.4390713677063255e-04 5.0297275957629235e-04 0.0000000000000000e+00  -2.4219261476069831e-04 4.9151215483186114e-04 0.0000000000000000e+00  -2.4031812615325147e-04 4.8007131385593293e-04 0.0000000000000000e+00  -2.3829964227353980e-04 4.6858613100476758e-04 0.0000000000000000e+00  -2.3611654572770595e-04 4.5708164667773016e-04 0.0000000000000000e+00  -2.3377018283485515e-04 4.4558942137754991e-04 0.0000000000000000e+00  -2.3126046740840832e-04 4.3405368619863096e-04 0.0000000000000000e+00  -2.2857469702386633e-04 4.2252581990587901e-04 0.0000000000000000e+00  -2.2571519158756130e-04 4.1096402549128231e-04 0.0000000000000000e+00  -2.2268286315075877e-04 3.9934542420061697e-04 0.0000000000000000e+00  -2.1945364139710791e-04 3.8774585371654634e-04 0.0000000000000000e+00  -2.1603933866568681e-04 3.7607401614665916e-04 0.0000000000000000e+00  -2.1241308519396747e-04 3.6439054642563887e-04 0.0000000000000000e+00  -2.0860099844510738e-04 3.5263925887807801e-04 0.0000000000000000e+00  -2.0455540006903902e-04 3.4088077377525448e-04 0.0000000000000000e+00  -2.0031321884380371e-04 3.2901325451770624e-04 0.0000000000000000e+00  