<?xml version="1.0"?>
<VTKFile type="UnstructuredGrid"  version="0.1"  >
<UnstructuredGrid>
<Piece  NumberOfPoints="16512" NumberOfCells="32424">
<Points>
<DataArray  type="Float64"  NumberOfComponents="3"  format="ascii">-25 4.9 0  25 4.9 0  25 -4.9 0  -25 -4.9 0  -10 0 0  10 0 0  -24.80000000000034 4.9 0  -24.60000000000068 4.9 0  -24.40000000000101 4.9 0  -24.20000000000135 4.9 0  -24.00000000000169 4.9 0  -23.80000000000203 4.9 0  -23.60000000000237 4.9 0  -23.40000000000271 4.9 0  -23.20000000000304 4.9 0  -23.00000000000338 4.9 0  -22.80000000000372 4.9 0  -22.60000000000406 4.9 0  -22.40000000000439 4.9 0  -22.20000000000473 4.9 0  -22.00000000000507 4.9 0  -21.80000000000541 4.9 0  -21.60000000000575 4.9 0  -21.40000000000608 4.9 0  -21.20000000000642 4.9 0  -21.00000000000676 4.9 0  -20.8000000000071 4.9 0  -20.60000000000744 4.9 0  -20.40000000000777 4.9 0  -20.20000000000811 4.9 0  -20.00000000000845 4.9 0  -19.80000000000879 4.9 0  -19.60000000000912 4.9 0  -19.40000000000946 4.9 0  -19.2000000000098 4.9 0  -19.00000000001039 4.9 0  -18.80000000001108 4.9 0  -18.60000000001231 4.9 0  -18.40000000001371 4.9 0  -18.2000000000154 4.9 0  -18.00000000001716 4.9 0  -17.80000000001892 4.9 0  -17.60000000002067 4.9 0  -17.40000000002243 4.9 0  -17.20000000002419 4.9 0  -17.00000000002595 4.9 0  -16.80000000002771 4.9 0  -16.60000000002947 4.9 0  -16.40000000003123 4.9 0  -16.20000000003299 4.9 0  -16.00000000003472 4.9 0  -15.80000000003612 4.9 0  -15.60000000003748 4.9 0  -15.40000000003853 4.9 0  -15.20000000003958 4.9 0  -15.00000000004063 4.9 0  -14.80000000004168 4.9 0  -14.60000000004273 4.9 0  -14.40000000004377 4.9 0  -14.20000000004482 4.9 0  -14.00000000004587 4.9 0  -13.80000000004692 4.9 0  -13.60000000004797 4.9 0  -13.40000000004902 4.9 0  -13.20000000005007 4.9 0  -13.00000000005111 4.9 0  -12.80000000005216 4.9 0  -12.60000000005321 4.9 0  -12.40000000005426 4.9 0  -12.20000000005531 4.9 0  -12.00000000005636 4.9 0  -11.80000000005741 4.9 0  -11.60000000005846 4.9 0  -11.4000000000595 4.9 0  -11.20000000006055 4.9 0  -11.0000000000616 4.9 0  -10.80000000006265 4.9 0  -10.6000000000637 4.9 0  -10.40000000006475 4.9 0  -10.2000000000658 4.9 0  -10.00000000006684 4.9 0  -9.800000000067891 4.9 0  -9.60000000006894 4.9 0  -9.400000000069989 4.9 0  -9.200000000070727 4.9 0  -9.00000000007142 4.9 0  -8.800000000071787 4.9 0  -8.600000000072125 4.9 0  -8.400000000072467 4.9 0  -8.200000000072805 4.9 0  -8.000000000073143 4.9 0  -7.800000000073481 4.9 0  -7.60000000007382 4.9 0  -7.400000000074154 4.9 0  -7.200000000074493 4.9 0  -7.000000000074831 4.9 0  -6.800000000075173 4.9 0  -6.600000000075511 4.9 0  -6.400000000075849 4.9 0  -6.200000000076187 4.9 0  -6.000000000076525 4.9 0  -5.800000000076867 4.9 0  -5.600000000077205 4.9 0  -5.400000000077544 4.9 0  -5.200000000077882 4.9 0  -5.00000000007822 4.9 0  -4.800000000078558 4.9 0  -4.600000000078897 4.9 0  -4.400000000079235 4.9 0  -4.200000000079573 4.9 0  -4.000000000079908 4.9 0  -3.800000000080246 4.9 0  -3.600000000080588 4.9 0  -3.400000000080926 4.9 0  -3.200000000081264 4.9 0  -3.000000000081606 4.9 0  -2.800000000081944 4.9 0  -2.600000000082282 4.9 0  -2.40000000008262 4.9 0  -2.200000000082959 4.9 0  -2.000000000083297 4.9 0  -1.800000000083635 4.9 0  -1.600000000083973 4.9 0  -1.400000000084312 4.9 0  -1.20000000008465 4.9 0  -1.000000000084988 4.9 0  -0.8000000000853262 4.9 0  -0.6000000000856645 4.9 0  -0.4000000000860027 4.9 0  -0.2000000000863409 4.9 0  -8.667910833537462e-11 4.9 0  0.1999999999129827 4.9 0  0.3999999999126409 4.9 0  0.5999999999123027 4.9 0  0.7999999999119716 4.9 0  0.9999999999116262 4.9 0  1.199999999911295 4.9 0  1.39999999991095 4.9 0  1.599999999910619 4.9 0  1.799999999910273 4.9 0  1.999999999909939 4.9 0  2.199999999909597 4.9 0  2.399999999909262 4.9 0  2.599999999908921 4.9 0  2.799999999908582 4.9 0  2.999999999908244 4.9 0  3.199999999907906 4.9 0  3.399999999907564 4.9 0  3.599999999907226 4.9 0  3.799999999906888 4.9 0  3.999999999906549 4.9 0  4.199999999906218 4.9 0  4.399999999905873 4.9 0  4.599999999905542 4.9 0  4.799999999905197 4.9 0  4.999999999904865 4.9 0  5.19999999990452 4.9 0  5.399999999904182 4.9 0  5.599999999903844 4.9 0  5.799999999903505 4.9 0  5.999999999903167 4.9 0  6.199999999902829 4.9 0  6.399999999902491 4.9 0  6.599999999902153 4.9 0  6.799999999902379 4.9 0  6.999999999902752 4.9 0  7.199999999903724 4.9 0  7.399999999904807 4.9 0  7.59999999990589 4.9 0  7.799999999906966 4.9 0  7.999999999908056 4.9 0  8.199999999909132 4.9 0  8.399999999910214 4.9 0  8.59999999991129 4.9 0  8.79999999991238 4.9 0  8.999999999913456 4.9 0  9.199999999914539 4.9 0  9.399999999915622 4.9 0  9.599999999916704 4.9 0  9.79999999991778 4.9 0  9.99999999991887 4.9 0  10.19999999991995 4.9 0  10.39999999992103 4.9 0  10.59999999992212 4.9 0  10.79999999992319 4.9 0  10.99999999992428 4.9 0  11.19999999992536 4.9 0  11.39999999992644 4.9 0  11.59999999992752 4.9 0  11.7999999999286 4.9 0  11.99999999992968 4.9 0  12.19999999993077 4.9 0  12.39999999993184 4.9 0  12.59999999993293 4.9 0  12.79999999993401 4.9 0  12.99999999993509 4.9 0  13.19999999993617 4.9 0  13.39999999993726 4.9 0  13.59999999993834 4.9 0  13.79999999993942 4.9 0  13.99999999994051 4.9 0  14.19999999994158 4.9 0  14.39999999994266 4.9 0  14.59999999994375 4.9 0  14.79999999994483 4.9 0  14.99999999994591 4.9 0  15.199999999947 4.9 0  15.39999999994807 4.9 0  15.59999999994915 4.9 0  15.79999999995024 4.9 0  15.99999999995132 4.9 0  16.1999999999524 4.9 0  16.39999999995349 4.9 0  16.59999999995456 4.9 0  16.79999999995565 4.9 0  16.99999999995674 4.9 0  17.19999999995781 4.9 0  17.39999999995889 4.9 0  17.59999999995997 4.9 0  17.79999999996106 4.9 0  17.99999999996214 4.9 0  18.19999999996322 4.9 0  18.3999999999643 4.9 0  18.59999999996538 4.9 0  18.79999999996646 4.9 0  18.99999999996755 4.9 0  19.19999999996863 4.9 0  19.39999999996971 4.9 0  19.59999999997079 4.9 0  19.79999999997187 4.9 0  19.99999999997296 4.9 0  20.19999999997404 4.9 0  20.39999999997512 4.9 0  20.5999999999762 4.9 0  20.79999999997728 4.9 0  20.99999999997836 4.9 0  21.19999999997945 4.9 0  21.39999999998052 4.9 0  21.59999999998161 4.9 0  21.79999999998269 4.9 0  21.99999999998377 4.9 0  22.19999999998485 4.9 0  22.39999999998594 4.9 0  22.59999999998701 4.9 0  22.7999999999881 4.9 0  22.99999999998919 4.9 0  23.19999999999026 4.9 0  23.39999999999135 4.9 0  23.59999999999243 4.9 0  23.79999999999351 4.9 0  23.99999999999459 4.9 0  24.19999999999568 4.9 0  24.39999999999675 4.9 0  24.59999999999783 4.9 0  24.79999999999892 4.9 0  25 4.700000000000415 0  25 4.500000000000868 0  25 4.300000000001562 0  25 4.100000000001831 0  25 3.900000000002072 0  25 3.700000000002459 0  25 3.500000000003038 0  25 3.300000000003653 0  25 3.100000000004294 0  25 2.900000000004838 0  25 2.700000000005293 0  25 2.500000000005957 0  25 2.300000000006508 0  25 2.100000000007153 0  25 1.900000000007722 0  25 1.700000000008417 0  25 1.500000000008938 0  25 1.30000000000963 0  25 1.100000000010154 0  25 0.9000000000108268 0  25 0.7000000000114559 0  25 0.5000000000119762 0  25 0.3000000000126564 0  25 0.1000000000131926 0  25 -0.09999999998679243 0  25 -0.2999999999874587 0  25 -0.4999999999878586 0  25 -0.6999999999884441 0  25 -0.899999999988804 0  25 -1.099999999989427 0  25 -1.299999999989749 0  25 -1.499999999990411 0  25 -1.69999999999073 0  25 -1.899999999991396 0  25 -2.099999999991715 0  25 -2.299999999992381 0  25 -2.499999999993047 0  25 -2.699999999993714 0  25 -2.899999999994227 0  25 -3.099999999994698 0  25 -3.299999999994673 0  25 -3.499999999995339 0  25 -3.699999999996004 0  25 -3.89999999999667 0  25 -4.099999999997335 0  25 -4.299999999998002 0  25 -4.499999999998668 0  25 -4.699999999999335 0  24.80000000000034 -4.9 0  24.60000000000068 -4.9 0  24.40000000000101 -4.9 0  24.20000000000135 -4.9 0  24.00000000000169 -4.9 0  23.80000000000203 -4.9 0  23.60000000000237 -4.9 0  23.40000000000271 -4.9 0  23.20000000000304 -4.9 0  23.00000000000338 -4.9 0  22.80000000000372 -4.9 0  22.60000000000406 -4.9 0  22.40000000000439 -4.9 0  22.20000000000473 -4.9 0  22.00000000000507 -4.9 0  21.80000000000541 -4.9 0  21.60000000000575 -4.9 0  21.40000000000608 -4.9 0  21.20000000000642 -4.9 0  21.00000000000676 -4.9 0  20.8000000000071 -4.9 0  20.60000000000744 -4.9 0  20.40000000000777 -4.9 0  20.20000000000811 -4.9 0  20.00000000000845 -4.9 0  19.80000000000879 -4.9 0  19.60000000000912 -4.9 0  19.40000000000946 -4.9 0  19.2000000000098 -4.9 0  19.00000000001039 -4.9 0  18.80000000001108 -4.9 0  18.60000000001231 -4.9 0  18.40000000001371 -4.9 0  18.2000000000154 -4.9 0  18.00000000001716 -4.9 0  17.80000000001892 -4.9 0  17.60000000002067 -4.9 0  17.40000000002243 -4.9 0  17.20000000002419 -4.9 0  17.00000000002595 -4.9 0  16.80000000002771 -4.9 0  16.60000000002947 -4.9 0  16.40000000003123 -4.9 0  16.20000000003299 -4.9 0  16.00000000003472 -4.9 0  15.80000000003612 -4.9 0  15.60000000003748 -4.9 0  15.40000000003853 -4.9 0  15.20000000003958 -4.9 0  15.00000000004063 -4.9 0  14.80000000004168 -4.9 0  14.60000000004273 -4.9 0  14.40000000004377 -4.9 0  14.20000000004482 -4.9 0  14.00000000004587 -4.9 0  13.80000000004692 -4.9 0  13.60000000004797 -4.9 0  13.40000000004902 -4.9 0  13.20000000005007 -4.9 0  13.00000000005111 -4.9 0  12.80000000005216 -4.9 0  12.60000000005321 -4.9 0  12.40000000005426 -4.9 0  12.20000000005531 -4.9 0  12.00000000005636 -4.9 0  11.80000000005741 -4.9 0  11.60000000005846 -4.9 0  11.4000000000595 -4.9 0  11.20000000006055 -4.9 0  11.0000000000616 -4.9 0  10.80000000006265 -4.9 0  10.6000000000637 -4.9 0  10.40000000006475 -4.9 0  10.2000000000658 -4.9 0  10.00000000006684 -4.9 0  9.800000000067891 -4.9 0  9.60000000006894 -4.9 0  9.400000000069989 -4.9 0  9.200000000070727 -4.9 0  9.00000000007142 -4.9 0  8.800000000071787 -4.9 0  8.600000000072125 -4.9 0  8.400000000072467 -4.9 0  8.200000000072805 -4.9 0  8.000000000073143 -4.9 
[...]
<PointData  Vectors="f_7"> 
<DataArray  type="Float64"  Name="f_7"  NumberOfComponents="3" format="ascii">1.1237579510764510e-04 2.6000000000000003e-04 0.0000000000000000e+00  -1.1247663354619043e-04 2.6000000000000003e-04 0.0000000000000000e+00  0.0000000000000000e+00 0.0000000000000000e+00 0.0000000000000000e+00  0.0000000000000000e+00 0.0000000000000000e+00 0.0000000000000000e+00  2.0327824554334628e-05 1.3011434963477078e-04 0.0000000000000000e+00  -1.9911135370152028e-05 1.2799074417122036e-04 0.0000000000000000e+00  1.1085470458037707e-04 2.6000000000000003e-04 0.0000000000000000e+00  1.0932225272401542e-04 2.6000000000000003e-04 0.0000000000000000e+00  1.0778022720538106e-04 2.6000000000000003e-04 0.0000000000000000e+00  1.0620531198228998e-04 2.6000000000000003e-04 0.0000000000000000e+00  1.0462331217742905e-04 2.6000000000000003e-04 0.0000000000000000e+00  1.0301761538944087e-04 2.6000000000000003e-04 0.0000000000000000e+00  1.0140251566137737e-04 2.6000000000000003e-04 0.0000000000000000e+00  9.9768488453955815e-05 2.6000000000000003e-04 0.0000000000000000e+00  9.8130893380576003e-05 2.6000000000000003e-04 0.0000000000000000e+00  9.6477650108377347e-05 2.6000000000000003e-04 0.0000000000000000e+00  9.4816268214995090e-05 2.6000000000000003e-04 0.0000000000000000e+00  9.3155167667757348e-05 2.6000000000000003e-04 0.0000000000000000e+00  9.1475919207334721e-05 2.6000000000000003e-04 0.0000000000000000e+00  8.9799211663502642e-05 2.6000000000000003e-04 0.0000000000000000e+00  8.8121711766748288e-05 2.6000000000000003e-04 0.0000000000000000e+00  8.6444866976399717e-05 2.6000000000000003e-04 0.0000000000000000e+00  8.4756757440714777e-05 2.6000000000000003e-04 0.0000000000000000e+00  8.3075781833804593e-05 2.6000000000000003e-04 0.0000000000000000e+00  8.1400697954334681e-05 2.6000000000000003e-04 0.0000000000000000e+00  7.9720380217025903e-05 2.6000000000000003e-04 0.0000000000000000e+00  7.8047486032599618e-05 2.6000000000000003e-04 0.0000000000000000e+00  7.6380432415337326e-05 2.6000000000000003e-04 0.0000000000000000e+00  7.4722093445375157e-05 2.6000000000000003e-04 0.0000000000000000e+00  7.3073373087063193e-05 2.6000000000000003e-04 0.0000000000000000e+00  7.1421402576822064e-05 2.6000000000000003e-04 0.0000000000000000e+00  6.9781741313731431e-05 2.6000000000000003e-04 0.0000000000000000e+00  6.8153348211520175e-05 2.6000000000000003e-04 0.0000000000000000e+00  6.6532384942034621e-05 2.6000000000000003e-04 0.0000000000000000e+00  6.4921310471853193e-05 2.6000000000000003e-04 0.0000000000000000e+00  6.3321193442445736e-05 2.6000000000000003e-04 0.0000000000000000e+00  6.1729335310739438e-05 2.6000000000000003e-04 0.0000000000000000e+00  6.0148367481511198e-05 2.6000000000000003e-04 0.0000000000000000e+00  5.8578234070268790e-05 2.6000000000000003e-04 0.0000000000000000e+00  5.7020700991471026e-05 2.6000000000000003e-04 0.0000000000000000e+00  5.5466771771304098e-05 2.6000000000000003e-04 0.0000000000000000e+00  5.3926468453148172e-05 2.6000000000000003e-04 0.0000000000000000e+00  5.2394815472824358e-05 2.6000000000000003e-04 0.0000000000000000e+00  5.0874470701706048e-05 2.6000000000000003e-04 0.0000000000000000e+00  4.9359746311272404e-05 2.6000000000000003e-04 0.0000000000000000e+00  4.7854873743749234e-05 2.6000000000000003e-04 0.0000000000000000e+00  4.6358995870614217e-05 2.6000000000000003e-04 0.0000000000000000e+00  4.4870254760484216e-05 2.6000000000000003e-04 0.0000000000000000e+00  4.3387968478244232e-05 2.6000000000000003e-04 0.0000000000000000e+00  4.1911613264207800e-05 2.6000000000000003e-04 0.0000000000000000e+00  4.0440175285188551e-05 2.6000000000000003e-04 0.0000000000000000e+00  3.8973722765496867e-05 2.6000000000000003e-04 0.0000000000000000e+00  3.7511445545245555e-05 2.6000000000000003e-04 0.0000000000000000e+00  3.6052295788188416e-05 2.6000000000000003e-04 0.0000000000000000e+00  3.4595968060445895e-05 2.6000000000000003e-04 0.0000000000000000e+00  3.3142048084921734e-05 2.6000000000000003e-04 0.0000000000000000e+00  3.1689227182545848e-05 2.6000000000000003e-04 0.0000000000000000e+00  3.0236641131345499e-05 2.6000000000000003e-04 0.0000000000000000e+00  2.8785269668403283e-05 2.6000000000000003e-04 0.0000000000000000e+00  2.7333526457023850e-05 2.6000000000000003e-04 0.0000000000000000e+00  2.5883239250634494e-05 2.6000000000000003e-04 0.0000000000000000e+00  2.4433399567279242e-05 2.6000000000000003e-04 0.0000000000000000e+00  2.2984417979443245e-05 2.6000000000000003e-04 0.0000000000000000e+00  2.1537078094805363e-05 2.6000000000000003e-04 0.0000000000000000e+00  2.0093871595770085e-05 2.6000000000000003e-04 0.0000000000000000e+00  1.8654700704060961e-05 2.6000000000000003e-04 0.0000000000000000e+00  1.7227349049085130e-05 2.6000000000000003e-04 0.0000000000000000e+00  1.5809262566423265e-05 2.6000000000000003e-04 0.0000000000000000e+00  1.4405069653252479e-05 2.6000000000000003e-04 0.0000000000000000e+00  1.3016967977938300e-05 2.6000000000000003e-04 0.0000000000000000e+00  1.1651210731104220e-05 2.6000000000000003e-04 0.0000000000000000e+00  1.0317239067469625e-05 2.6000000000000003e-04 0.0000000000000000e+00  9.0184359454309155e-06 2.6000000000000003e-04 0.0000000000000000e+00  7.7690119214319453e-06 2.6000000000000003e-04 0.0000000000000000e+00  6.5592209177672714e-06 2.6000000000000003e-04 0.0000000000000000e+00  5.3919883251545675e-06 2.6000000000000003e-04 0.0000000000000000e+00  4.2914081965259513e-06 2.6000000000000003e-04 0.0000000000000000e+00  3.2685009522110740e-06 2.6000000000000003e-04 0.0000000000000000e+00  2.3154204334379815e-06 2.6000000000000003e-04 0.0000000000000000e+00  1.4249374977104339e-06 2.6000000000000003e-04 0.0000000000000000e+00  6.3077913001477083e-07 2.6000000000000003e-04 0.0000000000000000e+00  -9.2958577991173066e-08 2.6000000000000003e-04 0.0000000000000000e+00  -7.2989961973274045e-07 2.6000000000000003e-04 0.0000000000000000e+00  -1.2751379614312304e-06 2.6000000000000003e-04 0.0000000000000000e+00  -1.7417037620723142e-06 2.6000000000000003e-04 0.0000000000000000e+00  -2.1337671684957685e-06 2.6000000000000003e-04 0.0000000000000000e+00  -2.4476100396498180e-06 2.6000000000000003e-04 0.0000000000000000e+00  -2.6869386015720062e-06 2.6000000000000003e-04 0.0000000000000000e+00  -2.8563397800600241e-06 2.6000000000000003e-04 0.0000000000000000e+00  -2.9635407558205011e-06 2.6000000000000003e-04 0.0000000000000000e+00  -3.0221944454111986e-06 2.6000000000000003e-04 0.0000000000000000e+00  -3.0355217554243663e-06 2.6000000000000003e-04 0.0000000000000000e+00  -3.0009085565464943e-06 2.6000000000000003e-04 0.0000000000000000e+00  -2.9274756325428846e-06 2.6000000000000003e-04 0.0000000000000000e+00  -2.8308751075800379e-06 2.6000000000000003e-04 0.0000000000000000e+00  -2.7108194301037648e-06 2.6000000000000003e-04 0.0000000000000000e+00  -2.5727941688842945e-06 2.6000000000000003e-04 0.0000000000000000e+00  -2.4153435925368988e-06 2.6000000000000003e-04 0.0000000000000000e+00  -2.2511026025870153e-06 2.6000000000000003e-04 0.0000000000000000e+00  -2.0812769463602765e-06 2.6000000000000003e-04 0.0000000000000000e+00  -1.9105164985677375e-06 2.6000000000000003e-04 0.0000000000000000e+00  -1.7373183027100639e-06 2.6000000000000003e-04 0.0000000000000000e+00  -1.5688431908991080e-06 2.6000000000000003e-04 0.0000000000000000e+00  -1.4061058760564849e-06 2.6000000000000003e-04 0.0000000000000000e+00  -1.2501166588898038e-06 2.6000000000000003e-04 0.0000000000000000e+00  -1.1024148225973700e-06 2.6000000000000003e-04 0.0000000000000000e+00  -9.6458181456528347e-07 2.6000000000000003e-04 0.0000000000000000e+00  -8.3788455297350686e-07 2.6000000000000003e-04 0.0000000000000000e+00  -7.1983453558046648e-07 2.6000000000000003e-04 0.0000000000000000e+00  -6.1396967390206485e-07 2.6000000000000003e-04 0.0000000000000000e+00  -5.1985833955227221e-07 2.6000000000000003e-04 0.0000000000000000e+00  -4.3808583874241704e-07 2.6000000000000003e-04 0.0000000000000000e+00  -3.6765295346508102e-07 2.6000000000000003e-04 0.0000000000000000e+00  -3.0812023641420244e-07 2.6000000000000003e-04 0.0000000000000000e+00  -2.5884654746286305e-07 2.6000000000000003e-04 0.0000000000000000e+00  -2.2043945851380706e-07 2.6000000000000003e-04 0.0000000000000000e+00  -1.9160051278842335e-07 2.6000000000000003e-04 0.0000000000000000e+00  -1.7163157813024494e-07 2.6000000000000003e-04 0.0000000000000000e+00  -1.5901955091532377e-07 2.6000000000000003e-04 0.0000000000000000e+00  -1.5420401716254348e-07 2.6000000000000003e-04 0.0000000000000000e+00  -1.5522065240198507e-07 2.6000000000000003e-04 0.0000000000000000e+00  -1.6231904290240646e-07 2.6000000000000003e-04 0.0000000000000000e+00  -1.7370543827535139e-07 2.6000000000000003e-04 0.0000000000000000e+00  -1.8921903689954488e-07 2.6000000000000003e-04 0.0000000000000000e+00  -2.0778609297659510e-07 2.6000000000000003e-04 0.0000000000000000e+00  -2.2854104008319067e-07 2.6000000000000003e-04 0.0000000000000000e+00  -2.5085992853800887e-07 2.6000000000000003e-04 0.0000000000000000e+00  -2.7391441811911732e-07 2.6000000000000003e-04 0.0000000000000000e+00  -2.9659665520061879e-07 2.6000000000000003e-04 0.0000000000000000e+00  -3.1864922376471336e-07 2.6000000000000003e-04 0.0000000000000000e+00  -3.3935590602063877e-07 2.6000000000000003e-04 0.0000000000000000e+00  -3.5816099742036741e-07 2.6000000000000003e-04 0.0000000000000000e+00  -3.7363492134890092e-07 2.6000000000000003e-04 0.0000000000000000e+00  -3.8626650315014448e-07 2.6000000000000003e-04 0.0000000000000000e+00  -3.9525193785522935e-07 2.6000000000000003e-04 0.0000000000000000e+00  -3.9933900422780063e-07 2.6000000000000003e-04 0.0000000000000000e+00  -3.9863063730855112e-07 2.6000000000000003e-04 0.0000000000000000e+00  -3.9244541757632921e-07 2.6000000000000003e-04 0.0000000000000000e+00  -3.8003574735757500e-07 2.6000000000000003e-04 0.0000000000000000e+00  -3.6184845199844937e-07 2.6000000000000003e-04 0.0000000000000000e+00  -3.3735614155932421e-07 2.6000000000000003e-04 0.0000000000000000e+00  -3.0626408007373604e-07 2.6000000000000003e-04 0.0000000000000000e+00  -2.6792766121219666e-07 2.6000000000000003e-04 0.0000000000000000e+00  -2.2243283896446690e-07 2.6000000000000003e-04 0.0000000000000000e+00  -1.6941527048556014e-07 2.6000000000000003e-04 0.0000000000000000e+00  -1.0849000081620207e-07 2.6000000000000003e-04 0.0000000000000000e+00  -3.9788721035799166e-08 2.6000000000000003e-04 0.0000000000000000e+00  3.7739553161295937e-08 2.6000000000000003e-04 0.0000000000000000e+00  1.2374280860705040e-07 2.6000000000000003e-04 0.0000000000000000e+00  2.1769961004545244e-07 2.6000000000000003e-04 0.0000000000000000e+00  3.2124586131397120e-07 2.6000000000000003e-04 0.0000000000000000e+00  4.3371067769912025e-07 2.6000000000000003e-04 0.0000000000000000e+00  5.5577047207171359e-07 2.6000000000000003e-04 0.0000000000000000e+00  6.8702288378262652e-07 2.6000000000000003e-04 0.0000000000000000e+00  8.2648632214187186e-07 2.6000000000000003e-04 0.0000000000000000e+00  9.7812038165853162e-07 2.6000000000000003e-04 0.0000000000000000e+00  1.1335052010595032e-06 2.6000000000000003e-04 0.0000000000000000e+00  1.2972185716942989e-06 2.6000000000000003e-04 0.0000000000000000e+00  1.4674801972091803e-06 2.6000000000000003e-04 0.0000000000000000e+00  1.6428329588533231e-06 2.6000000000000003e-04 0.0000000000000000e+00  1.8183054784676268e-06 2.6000000000000003e-04 0.0000000000000000e+00  1.9946089774976909e-06 2.6000000000000003e-04 0.0000000000000000e+00  2.1674481300547781e-06 2.6000000000000003e-04 0.0000000000000000e+00  2.3345253775314161e-06 2.6000000000000003e-04 0.0000000000000000e+00  2.4933191043442437e-06 2.6000000000000003e-04 0.0000000000000000e+00  2.6322678066021304e-06 2.6000000000000003e-04 0.0000000000000000e+00  2.7518994274030297e-06 2.6000000000000003e-04 0.0000000000000000e+00  2.8421660046336802e-06 2.6000000000000003e-04 0.0000000000000000e+00  2.9116334144659800e-06 2.6000000000000003e-04 0.0000000000000000e+00  2.9395102001655934e-06 2.6000000000000003e-04 0.0000000000000000e+00  2.9214703738180770e-06 2.6000000000000003e-04 0.0000000000000000e+00  2.8604599691205810e-06 2.6000000000000003e-04 0.0000000000000000e+00  2.7355383205465196e-06 2.6000000000000003e-04 0.0000000000000000e+00  2.5668230783458586e-06 2.6000000000000003e-04 0.0000000000000000e+00  2.3284318548401200e-06 2.6000000000000003e-04 0.0000000000000000e+00  2.0060519359045676e-06 2.6000000000000003e-04 0.0000000000000000e+00  1.6030348690500390e-06 2.6000000000000003e-04 0.0000000000000000e+00  1.1274465414227594e-06 2.6000000000000003e-04 0.0000000000000000e+00  5.6457701185226602e-07 2.6000000000000003e-04 0.0000000000000000e+00  -8.5404458038490589e-08 2.6000000000000003e-04 0.0000000000000000e+00  -8.1518396050156430e-07 2.6000000000000003e-04 0.0000000000000000e+00  -1.6321219138090473e-06 2.6000000000000003e-04 0.0000000000000000e+00  -2.5009554033904868e-06 2.6000000000000003e-04 0.0000000000000000e+00  -3.4695990913492033e-06 2.6000000000000003e-04 0.0000000000000000e+00  -4.5059496836626765e-06 2.6000000000000003e-04 0.0000000000000000e+00  -5.6061271799778691e-06 2.6000000000000003e-04 0.0000000000000000e+00  -6.7679467616750037e-06 2.6000000000000003e-04 0.0000000000000000e+00  -7.9768151803784738e-06 2.6000000000000003e-04 0.0000000000000000e+00  -9.2398376441779877e-06 2.6000000000000003e-04 0.0000000000000000e+00  -1.0535841615873957e-05 2.6000000000000003e-04 0.0000000000000000e+00  -1.1872666858027001e-05 2.6000000000000003e-04 0.0000000000000000e+00  -1.3234053927231000e-05 2.6000000000000003e-04 0.0000000000000000e+00  -1.4617195062367901e-05 2.6000000000000003e-04 0.0000000000000000e+00  -1.6017792882866048e-05 2.6000000000000003e-04 0.0000000000000000e+00  -1.7435801777583465e-05 2.6000000000000003e-04 0.0000000000000000e+00  -1.8861547214434232e-05 2.6000000000000003e-04 0.0000000000000000e+00  -2.0296380842844620e-05 2.6000000000000003e-04 0.0000000000000000e+00  -2.1735688127066255e-05 2.6000000000000003e-04 0.0000000000000000e+00  -2.3178578305987361e-05 2.6000000000000003e-04 0.0000000000000000e+00  -2.4623786055349840e-05 2.6000000000000003e-04 0.0000000000000000e+00  -2.6070117191671297e-05 2.6000000000000003e-04 0.0000000000000000e+00  -2.7517164286266809e-05 2.6000000000000003e-04 0.0000000000000000e+00  -2.8964382848515317e-05 2.6000000000000003e-04 0.0000000000000000e+00  -3.0412102086658540e-05 2.6000000000000003e-04 0.0000000000000000e+00  -3.1860731206930016e-05 2.6000000000000003e-04 0.0000000000000000e+00  -3.3310866939104243e-05 2.6000000000000003e-04 0.0000000000000000e+00  -3.4761283096864698e-05 2.6000000000000003e-04 0.0000000000000000e+00  -3.6213729882518127e-05 2.6000000000000003e-04 0.0000000000000000e+00  -3.7669226463629169e-05 2.6000000000000003e-04 0.0000000000000000e+00  -3.9127978403120857e-05 2.6000000000000003e-04 0.0000000000000000e+00  -4.0591357465496587e-05 2.6000000000000003e-04 0.0000000000000000e+00  -4.2059563608555509e-05 2.6000000000000003e-04 0.0000000000000000e+00  -4.3532718848671150e-05 2.6000000000000003e-04 0.0000000000000000e+00  -4.5012456811439921e-05 2.6000000000000003e-04 0.0000000000000000e+00  -4.6499541756305130e-05 2.6000000000000003e-04 0.0000000000000000e+00  -4.7994949574900768e-05 2.6000000000000003e-04 0.0000000000000000e+00  -4.9498218510569976e-05 2.6000000000000003e-04 0.0000000000000000e+00  -5.1006768259238913e-05 2.6000000000000003e-04 0.0000000000000000e+00  -5.2526385352219811e-05 2.6000000000000003e-04 0.0000000000000000e+00  -5.4055876664427172e-05 2.6000000000000003e-04 0.0000000000000000e+00  -5.5596987022202957e-05 2.6000000000000003e-04 0.0000000000000000e+00  -5.7142508140614285e-05 2.6000000000000003e-04 0.0000000000000000e+00  -5.8701416002099677e-05 2.6000000000000003e-04 0.0000000000000000e+00  -6.0272747446765588e-05 2.6000000000000003e-04 0.0000000000000000e+00  -6.1850103454637854e-05 2.6000000000000003e-04 0.0000000000000000e+00  -6.3439630445537301e-05 2.6000000000000003e-04 0.0000000000000000e+00  -6.5039756255241303e-05 2.6000000000000003e-04 0.0000000000000000e+00  -6.6650878348297138e-05 2.6000000000000003e-04 0.0000000000000000e+00  -6.8270572291431877e-05 2.6000000000000003e-04 0.0000000000000000e+00  -6.9897822962930941e-05 2.6000000000000003e-04 0.0000000000000000e+00  -7.1534343600150065e-05 2.6000000000000003e-04 0.0000000000000000e+00  -7.3180822574360379e-05 2.6000000000000003e-04 0.0000000000000000e+00  -7.4833889796761181e-05 2.6000000000000003e-04 0.0000000000000000e+00  -7.6493270399493026e-05 2.6000000000000003e-04 0.0000000000000000e+00  -7.8158978881882391e-05 2.6000000000000003e-04 0.0000000000000000e+00  -7.9831108338444053e-05 2.6000000000000003e-04 0.0000000000000000e+00  -8.1505215269618835e-05 2.6000000000000003e-04 0.0000000000000000e+00  -8.3185078627596266e-05 2.6000000000000003e-04 0.0000000000000000e+00  -8.4863377731249224e-05 2.6000000000000003e-04 0.0000000000000000e+00  -8.6545658236444266e-05 2.6000000000000003e-04 0.0000000000000000e+00  -8.8228235349439111e-05 2.6000000000000003e-04 0.0000000000000000e+00  -8.9906454175502914e-05 2.6000000000000003e-04 0.0000000000000000e+00  -9.1582698776646794e-05 2.6000000000000003e-04 0.0000000000000000e+00  -9.3255470104696992e-05 2.6000000000000003e-04 0.0000000000000000e+00  -9.4922014156963440e-05 2.6000000000000003e-04 0.0000000000000000e+00  -9.6579789072580630e-05 2.6000000000000003e-04 0.0000000000000000e+00  -9.8234266502318486e-05 2.6000000000000003e-04 0.0000000000000000e+00  -9.9875872585959856e-05 2.6000000000000003e-04 0.0000000000000000e+00  -1.0150548890972314e-04 2.6000000000000003e-04 0.0000000000000000e+00  -1.0312200437899029e-04 2.6000000000000003e-04 0.0000000000000000e+00  -1.0472191175310177e-04 2.6000000000000003e-04 0.0000000000000000e+00  -1.0630763513531196e-04 2.6000000000000003e-04 0.0000000000000000e+00  -1.0787901506165924e-04 2.6000000000000003e-04 0.0000000000000000e+00  -1.0942327978795901e-04 2.6000000000000003e-04 0.0000000000000000e+00  -1.1095521106425460e-04 2.6000000000000003e-04 0.0000000000000000e+00  -1.1243933694023911e-04 2.5549670951890806e-04 0.0000000000000000e+00  -1.1233582828098343e-04 2.5099203491003885e-04 0.0000000000000000e+00  -1.1218978770133320e-04 2.4648579761159706e-04 0.0000000000000000e+00  -1.1196405606823193e-04 2.4197767913648028e-04 0.0000000000000000e+00  -1.1168176631905609e-04 2.3747518012973086e-04 0.0000000000000000e+00  -1.1132268974314765e-04 2.3295793560285983e-04 0.0000000000000000e+00  -1.1090776379355628e-04 2.2844922286341146e-04 0.0000000000000000e+00  -1.1043032069557875e-04 2.2392816625305435e-04 0.0000000000000000e+00  -1.0988111645013412e-04 2.1940490981973504e-04 0.0000000000000000e+00  -1.0926434804092360e-04 2.1488574581945077e-04 0.0000000000000000e+00  -1.0858240813383922e-04 2.1035005060464872e-04 0.0000000000000000e+00  -1.0783057310381210e-04 2.0581304937145818e-04 0.0000000000000000e+00  -1.0701289937487138e-04 2.0126359975897721e-04 0.0000000000000000e+00  -1.0612007160319414e-04 1.9671990724502976e-04 0.0000000000000000e+00  -1.0516086148256289e-04 1.9215239546504018e-04 0.0000000000000000e+00  -1.0412611376456535e-04 1.8757230459640111e-04 0.0000000000000000e+00  -1.0301580541458874e-04 1.8299379680826187e-04 0.0000000000000000e+00  -1.0183215439138772e-04 1.7839136323508382e-04 0.0000000000000000e+00  -1.0056764455570812e-04 1.7378820704152696e-04 0.0000000000000000e+00  -9.9224881205797348e-05 1.6916489401585429e-04 0.0000000000000000e+00  -9.7805844354165134e-05 1.6451160064796306e-04 0.0000000000000000e+00  -9.6297497128030219e-05 1.5986192487199371e-04 0.0000000000000000e+00  -9.4708692912237274e-05 1.5517522021645942e-04 0.0000000000000000e+00  -9.3024423263559980e-05 1.5047825859705496e-04 0.0000000000000000e+00  -9.1260580977954822e-05 1.4574604558038534e-04 0.0000000000000000e+00  -8.9393172269573419e-05 1.4100488507215523e-04 0.0000000000000000e+00  -8.7442594969881909e-05 1.3621036336666336e-04 0.00000