<?xml version="1.0"?>
<VTKFile type="UnstructuredGrid"  version="0.1"  >
<UnstructuredGrid>
<Piece  NumberOfPoints="16512" NumberOfCells="32424">
<Points>
<DataArray  type="Float64"  NumberOfComponents="3"  format="ascii">-25 4.9 0  25 4.9 0  25 -4.9 0  -25 -4.9 0  -10 0 0  10 0 0  -24.80000000000034 4.9 0  -24.60000000000068 4.9 0  -24.40000000000101 4.9 0  -24.20000000000135 4.9 0  -24.00000000000169 4.9 0  -23.80000000000203 4.9 0  -23.60000000000237 4.9 0  -23.40000000000271 4.9 0  -23.20000000000304 4.9 0  -23.00000000000338 4.9 0  -22.80000000000372 4.9 0  -22.60000000000406 4.9 0  -22.40000000000439 4.9 0  -22.20000000000473 4.9 0  -22.00000000000507 4.9 0  -21.80000000000541 4.9 0  -21.60000000000575 4.9 0  -21.40000000000608 4.9 0  -21.20000000000642 4.9 0  -21.00000000000676 4.9 0  -20.8000000000071 4.9 0  -20.60000000000744 4.9 0  -20.40000000000777 4.9 0  -20.20000000000811 4.9 0  -20.00000000000845 4.9 0  -19.80000000000879 4.9 0  -19.60000000000912 4.9 0  -19.40000000000946 4.9 0  -19.2000000000098 4.9 0  -19.00000000001039 4.9 0  -18.80000000001108 4.9 0  -18.60000000001231 4.9 0  -18.40000000001371 4.9 0  -18.2000000000154 4.9 0  -18.00000000001716 4.9 0  -17.80000000001892 4.9 0  -17.60000000002067 4.9 0  -17.40000000002243 4.9 0  -17.20000000002419 4.9 0  -17.00000000002595 4.9 0  -16.80000000002771 4.9 0  -16.60000000002947 4.9 0  -16.40000000003123 4.9 0  -16.20000000003299 4.9 0  -16.00000000003472 4.9 0  -15.80000000003612 4.9 0  -15.60000000003748 4.9 0  -15.40000000003853 4.9 0  -15.20000000003958 4.9 0  -15.00000000004063 4.9 0  -14.80000000004168 4.9 0  -14.60000000004273 4.9 0  -14.40000000004377 4.9 0  -14.20000000004482 4.9 0  -14.00000000004587 4.9 0  -13.80000000004692 4.9 0  -13.60000000004797 4.9 0  -13.40000000004902 4.9 0  -13.20000000005007 4.9 0  -13.00000000005111 4.9 0  -12.80000000005216 4.9 0  -12.60000000005321 4.9 0  -12.40000000005426 4.9 0  -12.20000000005531 4.9 0  -12.00000000005636 4.9 0  -11.80000000005741 4.9 0  -11.60000000005846 4.9 0  -11.4000000000595 4.9 0  -11.20000000006055 4.9 0  -11.0000000000616 4.9 0  -10.80000000006265 4.9 0  -10.6000000000637 4.9 0  -10.40000000006475 4.9 0  -10.2000000000658 4.9 0  -10.00000000006684 4.9 0  -9.800000000067891 4.9 0  -9.60000000006894 4.9 0  -9.400000000069989 4.9 0  -9.200000000070727 4.9 0  -9.00000000007142 4.9 0  -8.800000000071787 4.9 0  -8.600000000072125 4.9 0  -8.400000000072467 4.9 0  -8.200000000072805 4.9 0  -8.000000000073143 4.9 0  -7.800000000073481 4.9 0  -7.60000000007382 4.9 0  -7.400000000074154 4.9 0  -7.200000000074493 4.9 0  -7.000000000074831 4.9 0  -6.800000000075173 4.9 0  -6.600000000075511 4.9 0  -6.400000000075849 4.9 0  -6.200000000076187 4.9 0  -6.000000000076525 4.9 0  -5.800000000076867 4.9 0  -5.600000000077205 4.9 0  -5.400000000077544 4.9 0  -5.200000000077882 4.9 0  -5.00000000007822 4.9 0  -4.800000000078558 4.9 0  -4.600000000078897 4.9 0  -4.400000000079235 4.9 0  -4.200000000079573 4.9 0  -4.000000000079908 4.9 0  -3.800000000080246 4.9 0  -3.600000000080588 4.9 0  -3.400000000080926 4.9 0  -3.200000000081264 4.9 0  -3.000000000081606 4.9 0  -2.800000000081944 4.9 0  -2.600000000082282 4.9 0  -2.40000000008262 4.9 0  -2.200000000082959 4.9 0  -2.000000000083297 4.9 0  -1.800000000083635 4.9 0  -1.600000000083973 4.9 0  -1.400000000084312 4.9 0  -1.20000000008465 4.9 0  -1.000000000084988 4.9 0  -0.8000000000853262 4.9 0  -0.6000000000856645 4.9 0  -0.4000000000860027 4.9 0  -0.2000000000863409 4.9 0  -8.667910833537462e-11 4.9 0  0.1999999999129827 4.9 0  0.3999999999126409 4.9 0  0.5999999999123027 4.9 0  0.7999999999119716 4.9 0  0.9999999999116262 4.9 0  1.199999999911295 4.9 0  1.39999999991095 4.9 0  1.599999999910619 4.9 0  1.799999999910273 4.9 0  1.999999999909939 4.9 0  2.199999999909597 4.9 0  2.399999999909262 4.9 0  2.599999999908921 4.9 0  2.799999999908582 4.9 0  2.999999999908244 4.9 0  3.199999999907906 4.9 0  3.399999999907564 4.9 0  3.599999999907226 4.9 0  3.799999999906888 4.9 0  3.999999999906549 4.9 0  4.199999999906218 4.9 0  4.399999999905873 4.9 0  4.599999999905542 4.9 0  4.799999999905197 4.9 0  4.999999999904865 4.9 0  5.19999999990452 4.9 0  5.399999999904182 4.9 0  5.599999999903844 4.9 0  5.799999999903505 4.9 0  5.999999999903167 4.9 0  6.199999999902829 4.9 0  6.399999999902491 4.9 0  6.599999999902153 4.9 0  6.799999999902379 4.9 0  6.999999999902752 4.9 0  7.199999999903724 4.9 0  7.399999999904807 4.9 0  7.59999999990589 4.9 0  7.799999999906966 4.9 0  7.999999999908056 4.9 0  8.199999999909132 4.9 0  8.399999999910214 4.9 0  8.59999999991129 4.9 0  8.79999999991238 4.9 0  8.999999999913456 4.9 0  9.199999999914539 4.9 0  9.399999999915622 4.9 0  9.599999999916704 4.9 0  9.79999999991778 4.9 0  9.99999999991887 4.9 0  10.19999999991995 4.9 0  10.39999999992103 4.9 0  10.59999999992212 4.9 0  10.79999999992319 4.9 0  10.99999999992428 4.9 0  11.19999999992536 4.9 0  11.39999999992644 4.9 0  11.59999999992752 4.9 0  11.7999999999286 4.9 0  11.99999999992968 4.9 0  12.19999999993077 4.9 0  12.39999999993184 4.9 0  12.59999999993293 4.9 0  12.79999999993401 4.9 0  12.99999999993509 4.9 0  13.19999999993617 4.9 0  13.39999999993726 4.9 0  13.59999999993834 4.9 0  13.79999999993942 4.9 0  13.99999999994051 4.9 0  14.19999999994158 4.9 0  14.39999999994266 4.9 0  14.59999999994375 4.9 0  14.79999999994483 4.9 0  14.99999999994591 4.9 0  15.199999999947 4.9 0  15.39999999994807 4.9 0  15.59999999994915 4.9 0  15.79999999995024 4.9 0  15.99999999995132 4.9 0  16.1999999999524 4.9 0  16.39999999995349 4.9 0  16.59999999995456 4.9 0  16.79999999995565 4.9 0  16.99999999995674 4.9 0  17.19999999995781 4.9 0  17.39999999995889 4.9 0  17.59999999995997 4.9 0  17.79999999996106 4.9 0  17.99999999996214 4.9 0  18.19999999996322 4.9 0  18.3999999999643 4.9 0  18.59999999996538 4.9 0  18.79999999996646 4.9 0  18.99999999996755 4.9 0  19.19999999996863 4.9 0  19.39999999996971 4.9 0  19.59999999997079 4.9 0  19.79999999997187 4.9 0  19.99999999997296 4.9 0  20.19999999997404 4.9 0  20.39999999997512 4.9 0  20.5999999999762 4.9 0  20.79999999997728 4.9 0  20.99999999997836 4.9 0  21.19999999997945 4.9 0  21.39999999998052 4.9 0  21.59999999998161 4.9 0  21.79999999998269 4.9 0  21.99999999998377 4.9 0  22.19999999998485 4.9 0  22.39999999998594 4.9 0  22.59999999998701 4.9 0  22.7999999999881 4.9 0  22.99999999998919 4.9 0  23.19999999999026 4.9 0  23.39999999999135 4.9 0  23.59999999999243 4.9 0  23.79999999999351 4.9 0  23.99999999999459 4.9 0  24.19999999999568 4.9 0  24.39999999999675 4.9 0  24.59999999999783 4.9 0  24.79999999999892 4.9 0  25 4.700000000000415 0  25 4.500000000000868 0  25 4.300000000001562 0  25 4.100000000001831 0  25 3.900000000002072 0  25 3.700000000002459 0  25 3.500000000003038 0  25 3.300000000003653 0  25 3.100000000004294 0  25 2.900000000004838 0  25 2.700000000005293 0  25 2.500000000005957 0  25 2.300000000006508 0  25 2.100000000007153 0  25 1.900000000007722 0  25 1.700000000008417 0  25 1.500000000008938 0  25 1.30000000000963 0  25 1.100000000010154 0  25 0.9000000000108268 0  25 0.7000000000114559 0  25 0.5000000000119762 0  25 0.3000000000126564 0  25 0.1000000000131926 0  25 -0.09999999998679243 0  25 -0.2999999999874587 0  25 -0.4999999999878586 0  25 -0.6999999999884441 0  25 -0.899999999988804 0  25 -1.099999999989427 0  25 -1.299999999989749 0  25 -1.499999999990411 0  25 -1.69999999999073 0  25 -1.899999999991396 0  25 -2.099999999991715 0  25 -2.299999999992381 0  25 -2.499999999993047 0  25 -2.699999999993714 0  25 -2.899999999994227 0  25 -3.099999999994698 0  25 -3.299999999994673 0  25 -3.499999999995339 0  25 -3.699999999996004 0  25 -3.89999999999667 0  25 -4.099999999997335 0  25 -4.299999999998002 0  25 -4.499999999998668 0  25 -4.699999999999335 0  24.80000000000034 -4.9 0  24.60000000000068 -4.9 0  24.40000000000101 -4.9 0  24.20000000000135 -4.9 0  24.00000000000169 -4.9 0  23.80000000000203 -4.9 0  23.60000000000237 -4.9 0  23.40000000000271 -4.9 0  23.20000000000304 -4.9 0  23.00000000000338 -4.9 0  22.80000000000372 -4.9 0  22.60000000000406 -4.9 0  22.40000000000439 -4.9 0  22.20000000000473 -4.9 0  22.00000000000507 -4.9 0  21.80000000000541 -4.9 0  21.60000000000575 -4.9 0  21.40000000000608 -4.9 0  21.20000000000642 -4.9 0  21.00000000000676 -4.9 0  20.8000000000071 -4.9 0  20.60000000000744 -4.9 0  20.40000000000777 -4.9 0  20.20000000000811 -4.9 0  20.00000000000845 -4.9 0  19.80000000000879 -4.9 0  19.60000000000912 -4.9 0  19.40000000000946 -4.9 0  19.2000000000098 -4.9 0  19.00000000001039 -4.9 0  18.80000000001108 -4.9 0  18.60000000001231 -4.9 0  18.40000000001371 -4.9 0  18.2000000000154 -4.9 0  18.00000000001716 -4.9 0  17.80000000001892 -4.9 0  17.60000000002067 -4.9 0  17.40000000002243 -4.9 0  17.20000000002419 -4.9 0  17.00000000002595 -4.9 0  16.80000000002771 -4.9 0  16.60000000002947 -4.9 0  16.40000000003123 -4.9 0  16.20000000003299 -4.9 0  16.00000000003472 -4.9 0  15.80000000003612 -4.9 0  15.60000000003748 -4.9 0  15.40000000003853 -4.9 0  15.20000000003958 -4.9 0  15.00000000004063 -4.9 0  14.80000000004168 -4.9 0  14.60000000004273 -4.9 0  14.40000000004377 -4.9 0  14.20000000004482 -4.9 0  14.00000000004587 -4.9 0  13.80000000004692 -4.9 0  13.60000000004797 -4.9 0  13.40000000004902 -4.9 0  13.20000000005007 -4.9 0  13.00000000005111 -4.9 0  12.80000000005216 -4.9 0  12.60000000005321 -4.9 0  12.40000000005426 -4.9 0  12.20000000005531 -4.9 0  12.00000000005636 -4.9 0  11.80000000005741 -4.9 0  11.60000000005846 -4.9 0  11.4000000000595 -4.9 0  11.20000000006055 -4.9 0  11.0000000000616 -4.9 0  10.80000000006265 -4.9 0  10.6000000000637 -4.9 0  10.40000000006475 -4.9 0  10.2000000000658 -4.9 0  10.00000000006684 -4.9 0  9.800000000067891 -4.9 0  9.60000000006894 -4.9 0  9.400000000069989 -4.9 0  9.200000000070727 -4.9 0  9.00000000007142 -4.9 0  8.800000000071787 -4.9 0  8.600000000072125 -4.9 0  8.400000000072467 -4.9 0  8.200000000072805 -4.9 0  8.000000000073143 -4.9 
[...]
<PointData  Vectors="f_7"> 
<DataArray  type="Float64"  Name="f_7"  NumberOfComponents="3" format="ascii">3.0400900088391566e-05 7.0000000000000007e-05 0.0000000000000000e+00  -3.0428283752761567e-05 7.0000000000000007e-05 0.0000000000000000e+00  0.0000000000000000e+00 0.0000000000000000e+00 0.0000000000000000e+00  0.0000000000000000e+00 0.0000000000000000e+00 0.0000000000000000e+00  5.5407429675599649e-06 3.5007626074209069e-05 0.0000000000000000e+00  -5.4276967608577181e-06 3.4444920060559780e-05 0.0000000000000000e+00  2.9992003466819876e-05 7.0000000000000007e-05 0.0000000000000000e+00  2.9580026559212716e-05 7.0000000000000007e-05 0.0000000000000000e+00  2.9165455918981075e-05 7.0000000000000007e-05 0.0000000000000000e+00  2.8741966772391273e-05 7.0000000000000007e-05 0.0000000000000000e+00  2.8316571029727451e-05 7.0000000000000007e-05 0.0000000000000000e+00  2.7884759104579518e-05 7.0000000000000007e-05 0.0000000000000000e+00  2.7450418149733795e-05 7.0000000000000007e-05 0.0000000000000000e+00  2.7010967193095369e-05 7.0000000000000007e-05 0.0000000000000000e+00  2.6570571374774108e-05 7.0000000000000007e-05 0.0000000000000000e+00  2.6125961213277543e-05 7.0000000000000007e-05 0.0000000000000000e+00  2.5679175115351238e-05 7.0000000000000007e-05 0.0000000000000000e+00  2.5232495361640936e-05 7.0000000000000007e-05 0.0000000000000000e+00  2.4780929935154601e-05 7.0000000000000007e-05 0.0000000000000000e+00  2.4330088949104724e-05 7.0000000000000007e-05 0.0000000000000000e+00  2.3879067771644372e-05 7.0000000000000007e-05 0.0000000000000000e+00  2.3428263895844155e-05 7.0000000000000007e-05 0.0000000000000000e+00  2.2974446425443589e-05 7.0000000000000007e-05 0.0000000000000000e+00  2.2522609819521254e-05 7.0000000000000007e-05 0.0000000000000000e+00  2.2072407837374215e-05 7.0000000000000007e-05 0.0000000000000000e+00  2.1620835702528212e-05 7.0000000000000007e-05 0.0000000000000000e+00  2.1171326689331099e-05 7.0000000000000007e-05 0.0000000000000000e+00  2.0723449372940393e-05 7.0000000000000007e-05 0.0000000000000000e+00  2.0277987985791966e-05 7.0000000000000007e-05 0.0000000000000000e+00  1.9835185309318108e-05 7.0000000000000007e-05 0.0000000000000000e+00  1.9391550735537091e-05 7.0000000000000007e-05 0.0000000000000000e+00  1.8951318167971165e-05 7.0000000000000007e-05 0.0000000000000000e+00  1.8514199817316301e-05 7.0000000000000007e-05 0.0000000000000000e+00  1.8079157219219469e-05 7.0000000000000007e-05 0.0000000000000000e+00  1.7646859758734458e-05 7.0000000000000007e-05 0.0000000000000000e+00  1.7217603960304604e-05 7.0000000000000007e-05 0.0000000000000000e+00  1.6790659736914012e-05 7.0000000000000007e-05 0.0000000000000000e+00  1.6366745536338708e-05 7.0000000000000007e-05 0.0000000000000000e+00  1.5945841692050463e-05 7.0000000000000007e-05 0.0000000000000000e+00  1.5528444474488120e-05 7.0000000000000007e-05 0.0000000000000000e+00  1.5112095613663974e-05 7.0000000000000007e-05 0.0000000000000000e+00  1.4699544466374736e-05 7.0000000000000007e-05 0.0000000000000000e+00  1.4289434780742946e-05 7.0000000000000007e-05 0.0000000000000000e+00  1.3882503023382635e-05 7.0000000000000007e-05 0.0000000000000000e+00  1.3477186901570877e-05 7.0000000000000007e-05 0.0000000000000000e+00  1.3074660479817516e-05 7.0000000000000007e-05 0.0000000000000000e+00  1.2674696865938944e-05 7.0000000000000007e-05 0.0000000000000000e+00  1.2276796138063904e-05 7.0000000000000007e-05 0.0000000000000000e+00  1.1880779937773902e-05 7.0000000000000007e-05 0.0000000000000000e+00  1.1486509359522300e-05 7.0000000000000007e-05 0.0000000000000000e+00  1.1093718121228678e-05 7.0000000000000007e-05 0.0000000000000000e+00  1.0702436442246577e-05 7.0000000000000007e-05 0.0000000000000000e+00  1.0312440250199886e-05 7.0000000000000007e-05 0.0000000000000000e+00  9.9234731813827005e-06 7.0000000000000007e-05 0.0000000000000000e+00  9.5354593243301589e-06 7.0000000000000007e-05 0.0000000000000000e+00  9.1482639118065924e-06 7.0000000000000007e-05 0.0000000000000000e+00  8.7615639274107612e-06 7.0000000000000007e-05 0.0000000000000000e+00  8.3751072590621839e-06 7.0000000000000007e-05 0.0000000000000000e+00  7.9891805284778623e-06 7.0000000000000007e-05 0.0000000000000000e+00  7.6034073688667294e-06 7.0000000000000007e-05 0.0000000000000000e+00  7.2181433625051390e-06 7.0000000000000007e-05 0.0000000000000000e+00  6.8332198313512024e-06 7.0000000000000007e-05 0.0000000000000000e+00  6.4487152531629538e-06 7.0000000000000007e-05 0.0000000000000000e+00  6.0648572310695589e-06 7.0000000000000007e-05 0.0000000000000000e+00  5.6822681778671414e-06 7.0000000000000007e-05 0.0000000000000000e+00  5.3009587376470615e-06 7.0000000000000007e-05 0.0000000000000000e+00  4.9228834778804738e-06 7.0000000000000007e-05 0.0000000000000000e+00  4.5474323627406763e-06 7.0000000000000007e-05 0.0000000000000000e+00  4.1757976696315239e-06 7.0000000000000007e-05 0.0000000000000000e+00  3.8085573569100231e-06 7.0000000000000007e-05 0.0000000000000000e+00  3.4473707106594144e-06 7.0000000000000007e-05 0.0000000000000000e+00  3.0945896961962587e-06 7.0000000000000007e-05 0.0000000000000000e+00  2.7511702423170426e-06 7.0000000000000007e-05 0.0000000000000000e+00  2.4207903920668898e-06 7.0000000000000007e-05 0.0000000000000000e+00  2.1009149635692750e-06 7.0000000000000007e-05 0.0000000000000000e+00  1.7922888175762958e-06 7.0000000000000007e-05 0.0000000000000000e+00  1.5011605059557796e-06 7.0000000000000007e-05 0.0000000000000000e+00  1.2303763918332906e-06 7.0000000000000007e-05 0.0000000000000000e+00  9.7787832798593771e-07 7.0000000000000007e-05 0.0000000000000000e+00  7.4178783780814076e-07 7.0000000000000007e-05 0.0000000000000000e+00  5.3076603124880945e-07 7.0000000000000007e-05 0.0000000000000000e+00  3.3812573231530955e-07 7.0000000000000007e-05 0.0000000000000000e+00  1.6807649216923587e-07 7.0000000000000007e-05 0.0000000000000000e+00  2.1822728600044025e-08 7.0000000000000007e-05 0.0000000000000000e+00  -1.0403725950092043e-07 7.0000000000000007e-05 0.0000000000000000e+00  -2.1061766193645808e-07 7.0000000000000007e-05 0.0000000000000000e+00  -2.9700587521754612e-07 7.0000000000000007e-05 0.0000000000000000e+00  -3.6420102137163744e-07 7.0000000000000007e-05 0.0000000000000000e+00  -4.1343039260952958e-07 7.0000000000000007e-05 0.0000000000000000e+00  -4.4673568620892651e-07 7.0000000000000007e-05 0.0000000000000000e+00  -4.6763543684608854e-07 7.0000000000000007e-05 0.0000000000000000e+00  -4.7699661548516718e-07 7.0000000000000007e-05 0.0000000000000000e+00  -4.7420285612285211e-07 7.0000000000000007e-05 0.0000000000000000e+00  -4.6162849739274291e-07 7.0000000000000007e-05 0.0000000000000000e+00  -4.4325507386870257e-07 7.0000000000000007e-05 0.0000000000000000e+00  -4.1903510031641052e-07 7.0000000000000007e-05 0.0000000000000000e+00  -3.9039378787159337e-07 7.0000000000000007e-05 0.0000000000000000e+00  -3.5698711518773309e-07 7.0000000000000007e-05 0.0000000000000000e+00  -3.2200578912582493e-07 7.0000000000000007e-05 0.0000000000000000e+00  -2.8576676979995219e-07 7.0000000000000007e-05 0.0000000000000000e+00  -2.4943902994765195e-07 7.0000000000000007e-05 0.0000000000000000e+00  -2.1268476920867333e-07 7.0000000000000007e-05 0.0000000000000000e+00  -1.7724450492446441e-07 7.0000000000000007e-05 0.0000000000000000e+00  -1.4339279051599487e-07 7.0000000000000007e-05 0.0000000000000000e+00  -1.1139261601646590e-07 7.0000000000000007e-05 0.0000000000000000e+00  -8.1608062620071341e-08 7.0000000000000007e-05 0.0000000000000000e+00  -5.4417514839730870e-08 7.0000000000000007e-05 0.0000000000000000e+00  -3.0133429474928327e-08 7.0000000000000007e-05 0.0000000000000000e+00  -8.1397312747044736e-09 7.0000000000000007e-05 0.0000000000000000e+00  1.0721908500813404e-08 7.0000000000000007e-05 0.0000000000000000e+00  2.6557154094781333e-08 7.0000000000000007e-05 0.0000000000000000e+00  3.9227582731574354e-08 7.0000000000000007e-05 0.0000000000000000e+00  4.9007884088666020e-08 7.0000000000000007e-05 0.0000000000000000e+00  5.6000950991236227e-08 7.0000000000000007e-05 0.0000000000000000e+00  6.0399344403449523e-08 7.0000000000000007e-05 0.0000000000000000e+00  6.2050724255103873e-08 7.0000000000000007e-05 0.0000000000000000e+00  6.1291235085681374e-08 7.0000000000000007e-05 0.0000000000000000e+00  5.8308456852200697e-08 7.0000000000000007e-05 0.0000000000000000e+00  5.3475457588668917e-08 7.0000000000000007e-05 0.0000000000000000e+00  4.6700817692718123e-08 7.0000000000000007e-05 0.0000000000000000e+00  3.8478474262951572e-08 7.0000000000000007e-05 0.0000000000000000e+00  2.8748318893189922e-08 7.0000000000000007e-05 0.0000000000000000e+00  1.7961352660353851e-08 7.0000000000000007e-05 0.0000000000000000e+00  6.1607019365527248e-09 7.0000000000000007e-05 0.0000000000000000e+00  -6.3856310981295700e-09 7.0000000000000007e-05 0.0000000000000000e+00  -1.9461183287026283e-08 7.0000000000000007e-05 0.0000000000000000e+00  -3.2909902790649078e-08 7.0000000000000007e-05 0.0000000000000000e+00  -4.6526144119801927e-08 7.0000000000000007e-05 0.0000000000000000e+00  -6.0034683059373538e-08 7.0000000000000007e-05 0.0000000000000000e+00  -7.3373881766636826e-08 7.0000000000000007e-05 0.0000000000000000e+00  -8.6364098684672471e-08 7.0000000000000007e-05 0.0000000000000000e+00  -9.8868412789233531e-08 7.0000000000000007e-05 0.0000000000000000e+00  -1.1053064789369592e-07 7.0000000000000007e-05 0.0000000000000000e+00  -1.2147589786720852e-07 7.0000000000000007e-05 0.0000000000000000e+00  -1.3150489744673432e-07 7.0000000000000007e-05 0.0000000000000000e+00  -1.4030263882712555e-07 7.0000000000000007e-05 0.0000000000000000e+00  -1.4789968671024395e-07 7.0000000000000007e-05 0.0000000000000000e+00  -1.5412649158271602e-07 7.0000000000000007e-05 0.0000000000000000e+00  -1.5879802775334577e-07 7.0000000000000007e-05 0.0000000000000000e+00  -1.6202920680369017e-07 7.0000000000000007e-05 0.0000000000000000e+00  -1.6368431890747898e-07 7.0000000000000007e-05 0.0000000000000000e+00  -1.6369555288112044e-07 7.0000000000000007e-05 0.0000000000000000e+00  -1.6190101750811415e-07 7.0000000000000007e-05 0.0000000000000000e+00  -1.5832308177295180e-07 7.0000000000000007e-05 0.0000000000000000e+00  -1.5286802304715805e-07 7.0000000000000007e-05 0.0000000000000000e+00  -1.4543880913315726e-07 7.0000000000000007e-05 0.0000000000000000e+00  -1.3606079430557906e-07 7.0000000000000007e-05 0.0000000000000000e+00  -1.2446994170147396e-07 7.0000000000000007e-05 0.0000000000000000e+00  -1.1075036324045937e-07 7.0000000000000007e-05 0.0000000000000000e+00  -9.5010572156608463e-08 7.0000000000000007e-05 0.0000000000000000e+00  -7.6844947428171704e-08 7.0000000000000007e-05 0.0000000000000000e+00  -5.6414131852262863e-08 7.0000000000000007e-05 0.0000000000000000e+00  -3.3515918946156052e-08 7.0000000000000007e-05 0.0000000000000000e+00  -8.2508854966148564e-09 7.0000000000000007e-05 0.0000000000000000e+00  1.9143590127523858e-08 7.0000000000000007e-05 0.0000000000000000e+00  4.9692157983236473e-08 7.0000000000000007e-05 0.0000000000000000e+00  8.1283462204120245e-08 7.0000000000000007e-05 0.0000000000000000e+00  1.1509243618526280e-07 7.0000000000000007e-05 0.0000000000000000e+00  1.5067695377852909e-07 7.0000000000000007e-05 0.0000000000000000e+00  1.8766108125858283e-07 7.0000000000000007e-05 0.0000000000000000e+00  2.2485177385810960e-07 7.0000000000000007e-05 0.0000000000000000e+00  2.6238960448841180e-07 7.0000000000000007e-05 0.0000000000000000e+00  2.9920633879634046e-07 7.0000000000000007e-05 0.0000000000000000e+00  3.3472519025674162e-07 7.0000000000000007e-05 0.0000000000000000e+00  3.6830171392181632e-07 7.0000000000000007e-05 0.0000000000000000e+00  3.9700699626536011e-07 7.0000000000000007e-05 0.0000000000000000e+00  4.2095722515477317e-07 7.0000000000000007e-05 0.0000000000000000e+00  4.3758043492560390e-07 7.0000000000000007e-05 0.0000000000000000e+00  4.4898885895424788e-07 7.0000000000000007e-05 0.0000000000000000e+00  4.4991079221897940e-07 7.0000000000000007e-05 0.0000000000000000e+00  4.3919492095381538e-07 7.0000000000000007e-05 0.0000000000000000e+00  4.1754253305829736e-07 7.0000000000000007e-05 0.0000000000000000e+00  3.7957389930023105e-07 7.0000000000000007e-05 0.0000000000000000e+00  3.3038097862212307e-07 7.0000000000000007e-05 0.0000000000000000e+00  2.6330848118644878e-07 7.0000000000000007e-05 0.0000000000000000e+00  1.7460822119170058e-07 7.0000000000000007e-05 0.0000000000000000e+00  6.5139984396213513e-08 7.0000000000000007e-05 0.0000000000000000e+00  -6.3120584954958140e-08 7.0000000000000007e-05 0.0000000000000000e+00  -2.1399622958264185e-07 7.0000000000000007e-05 0.0000000000000000e+00  -3.8748411804250923e-07 7.0000000000000007e-05 0.0000000000000000e+00  -5.8175162881853850e-07 7.0000000000000007e-05 0.0000000000000000e+00  -7.9868452249650821e-07 7.0000000000000007e-05 0.0000000000000000e+00  -1.0292254503731403e-06 7.0000000000000007e-05 0.0000000000000000e+00  -1.2857427923752507e-06 7.0000000000000007e-05 0.0000000000000000e+00  -1.5600069837586598e-06 7.0000000000000007e-05 0.0000000000000000e+00  -1.8510105044172490e-06 7.0000000000000007e-05 0.0000000000000000e+00  -2.1582093567437834e-06 7.0000000000000007e-05 0.0000000000000000e+00  -2.4778319506988592e-06 7.0000000000000007e-05 0.0000000000000000e+00  -2.8116813314535847e-06 7.0000000000000007e-05 0.0000000000000000e+00  -3.1543144552900110e-06 7.0000000000000007e-05 0.0000000000000000e+00  -3.5077624507626647e-06 7.0000000000000007e-05 0.0000000000000000e+00  -3.8677887495054383e-06 7.0000000000000007e-05 0.0000000000000000e+00  -4.2336726915760645e-06 7.0000000000000007e-05 0.0000000000000000e+00  -4.6043136696802543e-06 7.0000000000000007e-05 0.0000000000000000e+00  -4.9796619298137372e-06 7.0000000000000007e-05 0.0000000000000000e+00  -5.3572389001438493e-06 7.0000000000000007e-05 0.0000000000000000e+00  -5.7373843787993003e-06 7.0000000000000007e-05 0.0000000000000000e+00  -6.1188916862182106e-06 7.0000000000000007e-05 0.0000000000000000e+00  -6.5015372875528616e-06 7.0000000000000007e-05 0.0000000000000000e+00  -6.8849955029765758e-06 7.0000000000000007e-05 0.0000000000000000e+00  -7.2689431039873373e-06 7.0000000000000007e-05 0.0000000000000000e+00  -7.6532843232926228e-06 7.0000000000000007e-05 0.0000000000000000e+00  -8.0378815546925913e-06 7.0000000000000007e-05 0.0000000000000000e+00  -8.4227783553003380e-06 7.0000000000000007e-05 0.0000000000000000e+00  -8.8081432244444226e-06 7.0000000000000007e-05 0.0000000000000000e+00  -9.1941350982496060e-06 7.0000000000000007e-05 0.0000000000000000e+00  -9.5803471727827652e-06 7.0000000000000007e-05 0.0000000000000000e+00  -9.9673202225883594e-06 7.0000000000000007e-05 0.0000000000000000e+00  -1.0355286799795996e-05 7.0000000000000007e-05 0.0000000000000000e+00  -1.0744308158384702e-05 7.0000000000000007e-05 0.0000000000000000e+00  -1.1134750328349971e-05 7.0000000000000007e-05 0.0000000000000000e+00  -1.1526658138814208e-05 7.0000000000000007e-05 0.0000000000000000e+00  -1.1920063623914193e-05 7.0000000000000007e-05 0.0000000000000000e+00  -1.2315389632717491e-05 7.0000000000000007e-05 0.0000000000000000e+00  -1.2712843655703814e-05 7.0000000000000007e-05 0.0000000000000000e+00  -1.3112685457165045e-05 7.0000000000000007e-05 0.0000000000000000e+00  -1.3514778140192352e-05 7.0000000000000007e-05 0.0000000000000000e+00  -1.3918402727001019e-05 7.0000000000000007e-05 0.0000000000000000e+00  -1.4325148864350799e-05 7.0000000000000007e-05 0.0000000000000000e+00  -1.4734670945433105e-05 7.0000000000000007e-05 0.0000000000000000e+00  -1.5147445809300291e-05 7.0000000000000007e-05 0.0000000000000000e+00  -1.5561493357051168e-05 7.0000000000000007e-05 0.0000000000000000e+00  -1.5979267764072343e-05 7.0000000000000007e-05 0.0000000000000000e+00  -1.6400500936321269e-05 7.0000000000000007e-05 0.0000000000000000e+00  -1.6823440783624940e-05 7.0000000000000007e-05 0.0000000000000000e+00  -1.7249756252872557e-05 7.0000000000000007e-05 0.0000000000000000e+00  -1.7679014612417665e-05 7.0000000000000007e-05 0.0000000000000000e+00  -1.8111321539744818e-05 7.0000000000000007e-05 0.0000000000000000e+00  -1.8546018620131829e-05 7.0000000000000007e-05 0.0000000000000000e+00  -1.8982832564724775e-05 7.0000000000000007e-05 0.0000000000000000e+00  -1.9422214706252067e-05 7.0000000000000007e-05 0.0000000000000000e+00  -1.9864352252662685e-05 7.0000000000000007e-05 0.0000000000000000e+00  -2.0308336050423677e-05 7.0000000000000007e-05 0.0000000000000000e+00  -2.0754083224998936e-05 7.0000000000000007e-05 0.0000000000000000e+00  -2.1201599191591600e-05 7.0000000000000007e-05 0.0000000000000000e+00  -2.1650901387567090e-05 7.0000000000000007e-05 0.0000000000000000e+00  -2.2100788967905884e-05 7.0000000000000007e-05 0.0000000000000000e+00  -2.2552284413108797e-05 7.0000000000000007e-05 0.0000000000000000e+00  -2.3003396739225107e-05 7.0000000000000007e-05 0.0000000000000000e+00  -2.3455632237670673e-05 7.0000000000000007e-05 0.0000000000000000e+00  -2.3907989015497886e-05 7.0000000000000007e-05 0.0000000000000000e+00  -2.4359204750120357e-05 7.0000000000000007e-05 0.0000000000000000e+00  -2.4809922047336692e-05 7.0000000000000007e-05 0.0000000000000000e+00  -2.5259732189281732e-05 7.0000000000000007e-05 0.0000000000000000e+00  -2.5707887855656291e-05 7.0000000000000007e-05 0.0000000000000000e+00  -2.6153698679118882e-05 7.0000000000000007e-05 0.0000000000000000e+00  -2.6598642745349201e-05 7.0000000000000007e-05 0.0000000000000000e+00  -2.7040125005424644e-05 7.0000000000000007e-05 0.0000000000000000e+00  -2.7478380574915152e-05 7.0000000000000007e-05 0.0000000000000000e+00  -2.7913105465772073e-05 7.0000000000000007e-05 0.0000000000000000e+00  -2.8343344583939571e-05 7.0000000000000007e-05 0.0000000000000000e+00  -2.8769751805672558e-05 7.0000000000000007e-05 0.0000000000000000e+00  -2.9192282050552894e-05 7.0000000000000007e-05 0.0000000000000000e+00  -2.9607460120018014e-05 7.0000000000000007e-05 0.0000000000000000e+00  -3.0019296578846244e-05 7.0000000000000007e-05 0.0000000000000000e+00  -3.0418150112723517e-05 6.8789600117615129e-05 0.0000000000000000e+00  -3.0390027403965018e-05 6.7578819551435907e-05 0.0000000000000000e+00  -3.0350347430424337e-05 6.6367607271451058e-05 0.0000000000000000e+00  -3.0289020132383490e-05 6.5155873788696328e-05 0.0000000000000000e+00  -3.0212329595362746e-05 6.3945650327119411e-05 0.0000000000000000e+00  -3.0114780508948329e-05 6.2731406852222532e-05 0.0000000000000000e+00  -3.0002063699842078e-05 6.1519458634600721e-05 0.0000000000000000e+00  -2.9872372974933312e-05 6.0304132226220693e-05 0.0000000000000000e+00  -2.9723199950570461e-05 5.9088180532973384e-05 0.0000000000000000e+00  -2.9555679634086030e-05 5.7873306755285974e-05 0.0000000000000000e+00  -2.9370483333365144e-05 5.6653910997345202e-05 0.0000000000000000e+00  -2.9166310874226723e-05 5.5434123363908510e-05 0.0000000000000000e+00  -2.8944290472359581e-05 5.4210916845842842e-05 0.0000000000000000e+00  -2.8701879011205358e-05 5.2989224668345631e-05 0.0000000000000000e+00  -2.8441473627070588e-05 5.1761029401628228e-05 0.0000000000000000e+00  -2.8160597457198957e-05 5.0529373719985483e-05 0.0000000000000000e+00  -2.7859235430810445e-05 4.9298091207732781e-05 0.0000000000000000e+00  -2.7538019796280242e-05 4.8060270093963366e-05 0.0000000000000000e+00  -2.7194890400104302e-05 4.6822193348168049e-05 0.0000000000000000e+00  -2.6830574561555745e-05 4.5578590818816000e-05 0.0000000000000000e+00  -2.6445630363524923e-05 4.4326809668873311e-05 0.0000000000000000e+00  -2.6036497384518889e-05 4.3075938444831335e-05 0.0000000000000000e+00  -2.5605622145003731e-05 4.1814979157836615e-05 0.0000000000000000e+00  -2.5148900503064952e-05 4.0551172556763832e-05 0.0000000000000000e+00  -2.4670693146136804e-05 3.9277756044616232e-05 0.0000000000000000e+00  -2.4164468662100455e-05 3.8001837208236661e-05 0.0000000000000000e+00  -2.3635802260772049e-05 3.6711411824534240e-05 0.00000000000000