<?xml version="1.0"?>
<VTKFile type="UnstructuredGrid"  version="0.1"  >
<UnstructuredGrid>
<Piece  NumberOfPoints="16512" NumberOfCells="32424">
<Points>
<DataArray  type="Float64"  NumberOfComponents="3"  format="ascii">-25 4.9 0  25 4.9 0  25 -4.9 0  -25 -4.9 0  -10 0 0  10 0 0  -24.80000000000034 4.9 0  -24.60000000000068 4.9 0  -24.40000000000101 4.9 0  -24.20000000000135 4.9 0  -24.00000000000169 4.9 0  -23.80000000000203 4.9 0  -23.60000000000237 4.9 0  -23.40000000000271 4.9 0  -23.20000000000304 4.9 0  -23.00000000000338 4.9 0  -22.80000000000372 4.9 0  -22.60000000000406 4.9 0  -22.40000000000439 4.9 0  -22.20000000000473 4.9 0  -22.00000000000507 4.9 0  -21.80000000000541 4.9 0  -21.60000000000575 4.9 0  -21.40000000000608 4.9 0  -21.20000000000642 4.9 0  -21.00000000000676 4.9 0  -20.8000000000071 4.9 0  -20.60000000000744 4.9 0  -20.40000000000777 4.9 0  -20.20000000000811 4.9 0  -20.00000000000845 4.9 0  -19.80000000000879 4.9 0  -19.60000000000912 4.9 0  -19.40000000000946 4.9 0  -19.2000000000098 4.9 0  -19.00000000001039 4.9 0  -18.80000000001108 4.9 0  -18.60000000001231 4.9 0  -18.40000000001371 4.9 0  -18.2000000000154 4.9 0  -18.00000000001716 4.9 0  -17.80000000001892 4.9 0  -17.60000000002067 4.9 0  -17.40000000002243 4.9 0  -17.20000000002419 4.9 0  -17.00000000002595 4.9 0  -16.80000000002771 4.9 0  -16.60000000002947 4.9 0  -16.40000000003123 4.9 0  -16.20000000003299 4.9 0  -16.00000000003472 4.9 0  -15.80000000003612 4.9 0  -15.60000000003748 4.9 0  -15.40000000003853 4.9 0  -15.20000000003958 4.9 0  -15.00000000004063 4.9 0  -14.80000000004168 4.9 0  -14.60000000004273 4.9 0  -14.40000000004377 4.9 0  -14.20000000004482 4.9 0  -14.00000000004587 4.9 0  -13.80000000004692 4.9 0  -13.60000000004797 4.9 0  -13.40000000004902 4.9 0  -13.20000000005007 4.9 0  -13.00000000005111 4.9 0  -12.80000000005216 4.9 0  -12.60000000005321 4.9 0  -12.40000000005426 4.9 0  -12.20000000005531 4.9 0  -12.00000000005636 4.9 0  -11.80000000005741 4.9 0  -11.60000000005846 4.9 0  -11.4000000000595 4.9 0  -11.20000000006055 4.9 0  -11.0000000000616 4.9 0  -10.80000000006265 4.9 0  -10.6000000000637 4.9 0  -10.40000000006475 4.9 0  -10.2000000000658 4.9 0  -10.00000000006684 4.9 0  -9.800000000067891 4.9 0  -9.60000000006894 4.9 0  -9.400000000069989 4.9 0  -9.200000000070727 4.9 0  -9.00000000007142 4.9 0  -8.800000000071787 4.9 0  -8.600000000072125 4.9 0  -8.400000000072467 4.9 0  -8.200000000072805 4.9 0  -8.000000000073143 4.9 0  -7.800000000073481 4.9 0  -7.60000000007382 4.9 0  -7.400000000074154 4.9 0  -7.200000000074493 4.9 0  -7.000000000074831 4.9 0  -6.800000000075173 4.9 0  -6.600000000075511 4.9 0  -6.400000000075849 4.9 0  -6.200000000076187 4.9 0  -6.000000000076525 4.9 0  -5.800000000076867 4.9 0  -5.600000000077205 4.9 0  -5.400000000077544 4.9 0  -5.200000000077882 4.9 0  -5.00000000007822 4.9 0  -4.800000000078558 4.9 0  -4.600000000078897 4.9 0  -4.400000000079235 4.9 0  -4.200000000079573 4.9 0  -4.000000000079908 4.9 0  -3.800000000080246 4.9 0  -3.600000000080588 4.9 0  -3.400000000080926 4.9 0  -3.200000000081264 4.9 0  -3.000000000081606 4.9 0  -2.800000000081944 4.9 0  -2.600000000082282 4.9 0  -2.40000000008262 4.9 0  -2.200000000082959 4.9 0  -2.000000000083297 4.9 0  -1.800000000083635 4.9 0  -1.600000000083973 4.9 0  -1.400000000084312 4.9 0  -1.20000000008465 4.9 0  -1.000000000084988 4.9 0  -0.8000000000853262 4.9 0  -0.6000000000856645 4.9 0  -0.4000000000860027 4.9 0  -0.2000000000863409 4.9 0  -8.667910833537462e-11 4.9 0  0.1999999999129827 4.9 0  0.3999999999126409 4.9 0  0.5999999999123027 4.9 0  0.7999999999119716 4.9 0  0.9999999999116262 4.9 0  1.199999999911295 4.9 0  1.39999999991095 4.9 0  1.599999999910619 4.9 0  1.799999999910273 4.9 0  1.999999999909939 4.9 0  2.199999999909597 4.9 0  2.399999999909262 4.9 0  2.599999999908921 4.9 0  2.799999999908582 4.9 0  2.999999999908244 4.9 0  3.199999999907906 4.9 0  3.399999999907564 4.9 0  3.599999999907226 4.9 0  3.799999999906888 4.9 0  3.999999999906549 4.9 0  4.199999999906218 4.9 0  4.399999999905873 4.9 0  4.599999999905542 4.9 0  4.799999999905197 4.9 0  4.999999999904865 4.9 0  5.19999999990452 4.9 0  5.399999999904182 4.9 0  5.599999999903844 4.9 0  5.799999999903505 4.9 0  5.999999999903167 4.9 0  6.199999999902829 4.9 0  6.399999999902491 4.9 0  6.599999999902153 4.9 0  6.799999999902379 4.9 0  6.999999999902752 4.9 0  7.199999999903724 4.9 0  7.399999999904807 4.9 0  7.59999999990589 4.9 0  7.799999999906966 4.9 0  7.999999999908056 4.9 0  8.199999999909132 4.9 0  8.399999999910214 4.9 0  8.59999999991129 4.9 0  8.79999999991238 4.9 0  8.999999999913456 4.9 0  9.199999999914539 4.9 0  9.399999999915622 4.9 0  9.599999999916704 4.9 0  9.79999999991778 4.9 0  9.99999999991887 4.9 0  10.19999999991995 4.9 0  10.39999999992103 4.9 0  10.59999999992212 4.9 0  10.79999999992319 4.9 0  10.99999999992428 4.9 0  11.19999999992536 4.9 0  11.39999999992644 4.9 0  11.59999999992752 4.9 0  11.7999999999286 4.9 0  11.99999999992968 4.9 0  12.19999999993077 4.9 0  12.39999999993184 4.9 0  12.59999999993293 4.9 0  12.79999999993401 4.9 0  12.99999999993509 4.9 0  13.19999999993617 4.9 0  13.39999999993726 4.9 0  13.59999999993834 4.9 0  13.79999999993942 4.9 0  13.99999999994051 4.9 0  14.19999999994158 4.9 0  14.39999999994266 4.9 0  14.59999999994375 4.9 0  14.79999999994483 4.9 0  14.99999999994591 4.9 0  15.199999999947 4.9 0  15.39999999994807 4.9 0  15.59999999994915 4.9 0  15.79999999995024 4.9 0  15.99999999995132 4.9 0  16.1999999999524 4.9 0  16.39999999995349 4.9 0  16.59999999995456 4.9 0  16.79999999995565 4.9 0  16.99999999995674 4.9 0  17.19999999995781 4.9 0  17.39999999995889 4.9 0  17.59999999995997 4.9 0  17.79999999996106 4.9 0  17.99999999996214 4.9 0  18.19999999996322 4.9 0  18.3999999999643 4.9 0  18.59999999996538 4.9 0  18.79999999996646 4.9 0  18.99999999996755 4.9 0  19.19999999996863 4.9 0  19.39999999996971 4.9 0  19.59999999997079 4.9 0  19.79999999997187 4.9 0  19.99999999997296 4.9 0  20.19999999997404 4.9 0  20.39999999997512 4.9 0  20.5999999999762 4.9 0  20.79999999997728 4.9 0  20.99999999997836 4.9 0  21.19999999997945 4.9 0  21.39999999998052 4.9 0  21.59999999998161 4.9 0  21.79999999998269 4.9 0  21.99999999998377 4.9 0  22.19999999998485 4.9 0  22.39999999998594 4.9 0  22.59999999998701 4.9 0  22.7999999999881 4.9 0  22.99999999998919 4.9 0  23.19999999999026 4.9 0  23.39999999999135 4.9 0  23.59999999999243 4.9 0  23.79999999999351 4.9 0  23.99999999999459 4.9 0  24.19999999999568 4.9 0  24.39999999999675 4.9 0  24.59999999999783 4.9 0  24.79999999999892 4.9 0  25 4.700000000000415 0  25 4.500000000000868 0  25 4.300000000001562 0  25 4.100000000001831 0  25 3.900000000002072 0  25 3.700000000002459 0  25 3.500000000003038 0  25 3.300000000003653 0  25 3.100000000004294 0  25 2.900000000004838 0  25 2.700000000005293 0  25 2.500000000005957 0  25 2.300000000006508 0  25 2.100000000007153 0  25 1.900000000007722 0  25 1.700000000008417 0  25 1.500000000008938 0  25 1.30000000000963 0  25 1.100000000010154 0  25 0.9000000000108268 0  25 0.7000000000114559 0  25 0.5000000000119762 0  25 0.3000000000126564 0  25 0.1000000000131926 0  25 -0.09999999998679243 0  25 -0.2999999999874587 0  25 -0.4999999999878586 0  25 -0.6999999999884441 0  25 -0.899999999988804 0  25 -1.099999999989427 0  25 -1.299999999989749 0  25 -1.499999999990411 0  25 -1.69999999999073 0  25 -1.899999999991396 0  25 -2.099999999991715 0  25 -2.299999999992381 0  25 -2.499999999993047 0  25 -2.699999999993714 0  25 -2.899999999994227 0  25 -3.099999999994698 0  25 -3.299999999994673 0  25 -3.499999999995339 0  25 -3.699999999996004 0  25 -3.89999999999667 0  25 -4.099999999997335 0  25 -4.299999999998002 0  25 -4.499999999998668 0  25 -4.699999999999335 0  24.80000000000034 -4.9 0  24.60000000000068 -4.9 0  24.40000000000101 -4.9 0  24.20000000000135 -4.9 0  24.00000000000169 -4.9 0  23.80000000000203 -4.9 0  23.60000000000237 -4.9 0  23.40000000000271 -4.9 0  23.20000000000304 -4.9 0  23.00000000000338 -4.9 0  22.80000000000372 -4.9 0  22.60000000000406 -4.9 0  22.40000000000439 -4.9 0  22.20000000000473 -4.9 0  22.00000000000507 -4.9 0  21.80000000000541 -4.9 0  21.60000000000575 -4.9 0  21.40000000000608 -4.9 0  21.20000000000642 -4.9 0  21.00000000000676 -4.9 0  20.8000000000071 -4.9 0  20.60000000000744 -4.9 0  20.40000000000777 -4.9 0  20.20000000000811 -4.9 0  20.00000000000845 -4.9 0  19.80000000000879 -4.9 0  19.60000000000912 -4.9 0  19.40000000000946 -4.9 0  19.2000000000098 -4.9 0  19.00000000001039 -4.9 0  18.80000000001108 -4.9 0  18.60000000001231 -4.9 0  18.40000000001371 -4.9 0  18.2000000000154 -4.9 0  18.00000000001716 -4.9 0  17.80000000001892 -4.9 0  17.60000000002067 -4.9 0  17.40000000002243 -4.9 0  17.20000000002419 -4.9 0  17.00000000002595 -4.9 0  16.80000000002771 -4.9 0  16.60000000002947 -4.9 0  16.40000000003123 -4.9 0  16.20000000003299 -4.9 0  16.00000000003472 -4.9 0  15.80000000003612 -4.9 0  15.60000000003748 -4.9 0  15.40000000003853 -4.9 0  15.20000000003958 -4.9 0  15.00000000004063 -4.9 0  14.80000000004168 -4.9 0  14.60000000004273 -4.9 0  14.40000000004377 -4.9 0  14.20000000004482 -4.9 0  14.00000000004587 -4.9 0  13.80000000004692 -4.9 0  13.60000000004797 -4.9 0  13.40000000004902 -4.9 0  13.20000000005007 -4.9 0  13.00000000005111 -4.9 0  12.80000000005216 -4.9 0  12.60000000005321 -4.9 0  12.40000000005426 -4.9 0  12.20000000005531 -4.9 0  12.00000000005636 -4.9 0  11.80000000005741 -4.9 0  11.60000000005846 -4.9 0  11.4000000000595 -4.9 0  11.20000000006055 -4.9 0  11.0000000000616 -4.9 0  10.80000000006265 -4.9 0  10.6000000000637 -4.9 0  10.40000000006475 -4.9 0  10.2000000000658 -4.9 0  10.00000000006684 -4.9 0  9.800000000067891 -4.9 0  9.60000000006894 -4.9 0  9.400000000069989 -4.9 0  9.200000000070727 -4.9 0  9.00000000007142 -4.9 0  8.800000000071787 -4.9 0  8.600000000072125 -4.9 0  8.400000000072467 -4.9 0  8.200000000072805 -4.9 0  8.000000000073143 -4.9 
[...]
<PointData  Vectors="f_7"> 
<DataArray  type="Float64"  Name="f_7"  NumberOfComponents="3" format="ascii">2.2663873408734894e-04 5.4000000000000001e-04 0.0000000000000000e+00  -2.2681849238016010e-04 5.4000000000000001e-04 0.0000000000000000e+00  0.0000000000000000e+00 0.0000000000000000e+00 0.0000000000000000e+00  0.0000000000000000e+00 0.0000000000000000e+00 0.0000000000000000e+00  3.8377516289283273e-05 2.7109309453649449e-04 0.0000000000000000e+00  -3.7508899895267719e-05 2.6645451016978983e-04 0.0000000000000000e+00  2.2345054449397862e-04 5.4000000000000001e-04 0.0000000000000000e+00  2.2023975170035672e-04 5.4000000000000001e-04 0.0000000000000000e+00  2.1700982630847409e-04 5.4000000000000001e-04 0.0000000000000000e+00  2.1371453297480957e-04 5.4000000000000001e-04 0.0000000000000000e+00  2.1040449705364539e-04 5.4000000000000001e-04 0.0000000000000000e+00  2.0704692530325081e-04 5.4000000000000001e-04 0.0000000000000000e+00  2.0366971876460712e-04 5.4000000000000001e-04 0.0000000000000000e+00  2.0025386793811082e-04 5.4000000000000001e-04 0.0000000000000000e+00  1.9682989281691982e-04 5.4000000000000001e-04 0.0000000000000000e+00  1.9337349706154860e-04 5.4000000000000001e-04 0.0000000000000000e+00  1.8989951180358711e-04 5.4000000000000001e-04 0.0000000000000000e+00  1.8642471376554976e-04 5.4000000000000001e-04 0.0000000000000000e+00  1.8291223140406613e-04 5.4000000000000001e-04 0.0000000000000000e+00  1.7940318320562546e-04 5.4000000000000001e-04 0.0000000000000000e+00  1.7589097945376210e-04 5.4000000000000001e-04 0.0000000000000000e+00  1.7237827073885334e-04 5.4000000000000001e-04 0.0000000000000000e+00  1.6884130597662292e-04 5.4000000000000001e-04 0.0000000000000000e+00  1.6531640952913254e-04 5.4000000000000001e-04 0.0000000000000000e+00  1.6180154069465915e-04 5.4000000000000001e-04 0.0000000000000000e+00  1.5827403987363049e-04 5.4000000000000001e-04 0.0000000000000000e+00  1.5475901952639520e-04 5.4000000000000001e-04 0.0000000000000000e+00  1.5125343487819792e-04 5.4000000000000001e-04 0.0000000000000000e+00  1.4776277895242430e-04 5.4000000000000001e-04 0.0000000000000000e+00  1.4428895705263694e-04 5.4000000000000001e-04 0.0000000000000000e+00  1.4080644230628060e-04 5.4000000000000001e-04 0.0000000000000000e+00  1.3734549782848046e-04 5.4000000000000001e-04 0.0000000000000000e+00  1.3390430636246129e-04 5.4000000000000001e-04 0.0000000000000000e+00  1.3047513494607110e-04 5.4000000000000001e-04 0.0000000000000000e+00  1.2706276014090009e-04 5.4000000000000001e-04 0.0000000000000000e+00  1.2366900546826955e-04 5.4000000000000001e-04 0.0000000000000000e+00  1.2028844007977183e-04 5.4000000000000001e-04 0.0000000000000000e+00  1.1692607904799922e-04 5.4000000000000001e-04 0.0000000000000000e+00  1.1358201681738158e-04 5.4000000000000001e-04 0.0000000000000000e+00  1.1025899239698528e-04 5.4000000000000001e-04 0.0000000000000000e+00  1.0693996721403034e-04 5.4000000000000001e-04 0.0000000000000000e+00  1.0364344977369292e-04 5.4000000000000001e-04 0.0000000000000000e+00  1.0035987415603237e-04 5.4000000000000001e-04 0.0000000000000000e+00  9.7093830823551626e-05 5.4000000000000001e-04 0.0000000000000000e+00  9.3834904725037031e-05 5.4000000000000001e-04 0.0000000000000000e+00  9.0590330488897613e-05 5.4000000000000001e-04 0.0000000000000000e+00  8.7358165554052807e-05 5.4000000000000001e-04 0.0000000000000000e+00  8.4134552812790544e-05 5.4000000000000001e-04 0.0000000000000000e+00  8.0917850111924294e-05 5.4000000000000001e-04 0.0000000000000000e+00  7.7706883646693975e-05 5.4000000000000001e-04 0.0000000000000000e+00  7.4499259233190625e-05 5.4000000000000001e-04 0.0000000000000000e+00  7.1294597813641416e-05 5.4000000000000001e-04 0.0000000000000000e+00  6.8091476727837459e-05 5.4000000000000001e-04 0.0000000000000000e+00  6.4886583451524306e-05 5.4000000000000001e-04 0.0000000000000000e+00  6.1679000117145663e-05 5.4000000000000001e-04 0.0000000000000000e+00  5.8468893558018183e-05 5.4000000000000001e-04 0.0000000000000000e+00  5.5252222567990641e-05 5.4000000000000001e-04 0.0000000000000000e+00  5.2028013992370228e-05 5.4000000000000001e-04 0.0000000000000000e+00  4.8797235309468620e-05 5.4000000000000001e-04 0.0000000000000000e+00  4.5554387814362863e-05 5.4000000000000001e-04 0.0000000000000000e+00  4.2309119134038820e-05 5.4000000000000001e-04 0.0000000000000000e+00  3.9054791187438579e-05 5.4000000000000001e-04 0.0000000000000000e+00  3.5793594382379538e-05 5.4000000000000001e-04 0.0000000000000000e+00  3.2526270753205663e-05 5.4000000000000001e-04 0.0000000000000000e+00  2.9259930235609092e-05 5.4000000000000001e-04 0.0000000000000000e+00  2.5992610319039435e-05 5.4000000000000001e-04 0.0000000000000000e+00  2.2746363588215611e-05 5.4000000000000001e-04 0.0000000000000000e+00  1.9512414019511531e-05 5.4000000000000001e-04 0.0000000000000000e+00  1.6302419541300681e-05 5.4000000000000001e-04 0.0000000000000000e+00  1.3121384119486968e-05 5.4000000000000001e-04 0.0000000000000000e+00  9.9827385839743912e-06 5.4000000000000001e-04 0.0000000000000000e+00  6.9143888701901766e-06 5.4000000000000001e-04 0.0000000000000000e+00  3.9207637030812431e-06 5.4000000000000001e-04 0.0000000000000000e+00  1.0372057956211597e-06 5.4000000000000001e-04 0.0000000000000000e+00  -1.7600507756621243e-06 5.4000000000000001e-04 0.0000000000000000e+00  -4.4631033496540829e-06 5.4000000000000001e-04 0.0000000000000000e+00  -7.0126237506847240e-06 5.4000000000000001e-04 0.0000000000000000e+00  -9.3808370120060563e-06 5.4000000000000001e-04 0.0000000000000000e+00  -1.1585942448868976e-05 5.4000000000000001e-04 0.0000000000000000e+00  -1.3645631909647540e-05 5.4000000000000001e-04 0.0000000000000000e+00  -1.5471868748074006e-05 5.4000000000000001e-04 0.0000000000000000e+00  -1.7130379626465019e-05 5.4000000000000001e-04 0.0000000000000000e+00  -1.8578542260646647e-05 5.4000000000000001e-04 0.0000000000000000e+00  -1.9800271961159454e-05 5.4000000000000001e-04 0.0000000000000000e+00  -2.0826374723690781e-05 5.4000000000000001e-04 0.0000000000000000e+00  -2.1665065581464911e-05 5.4000000000000001e-04 0.0000000000000000e+00  -2.2303759474482578e-05 5.4000000000000001e-04 0.0000000000000000e+00  -2.2748889581192844e-05 5.4000000000000001e-04 0.0000000000000000e+00  -2.3008977949166367e-05 5.4000000000000001e-04 0.0000000000000000e+00  -2.3100060769894114e-05 5.4000000000000001e-04 0.0000000000000000e+00  -2.3057017451794997e-05 5.4000000000000001e-04 0.0000000000000000e+00  -2.2884960531806366e-05 5.4000000000000001e-04 0.0000000000000000e+00  -2.2572401625093293e-05 5.4000000000000001e-04 0.0000000000000000e+00  -2.2139903986208608e-05 5.4000000000000001e-04 0.0000000000000000e+00  -2.1631254329505999e-05 5.4000000000000001e-04 0.0000000000000000e+00  -2.1043125356793995e-05 5.4000000000000001e-04 0.0000000000000000e+00  -2.0387388410678989e-05 5.4000000000000001e-04 0.0000000000000000e+00  -1.9657938508090505e-05 5.4000000000000001e-04 0.0000000000000000e+00  -1.8891377671261400e-05 5.4000000000000001e-04 0.0000000000000000e+00  -1.8089929032693741e-05 5.4000000000000001e-04 0.0000000000000000e+00  -1.7267580290644122e-05 5.4000000000000001e-04 0.0000000000000000e+00  -1.6415849945217836e-05 5.4000000000000001e-04 0.0000000000000000e+00  -1.5563010622957985e-05 5.4000000000000001e-04 0.0000000000000000e+00  -1.4710080169745759e-05 5.4000000000000001e-04 0.0000000000000000e+00  -1.3859689202562326e-05 5.4000000000000001e-04 0.0000000000000000e+00  -1.3019603753128288e-05 5.4000000000000001e-04 0.0000000000000000e+00  -1.2196991327753603e-05 5.4000000000000001e-04 0.0000000000000000e+00  -1.1397042808687975e-05 5.4000000000000001e-04 0.0000000000000000e+00  -1.0613636338668822e-05 5.4000000000000001e-04 0.0000000000000000e+00  -9.8614633916017790e-06 5.4000000000000001e-04 0.0000000000000000e+00  -9.1405757905653316e-06 5.4000000000000001e-04 0.0000000000000000e+00  -8.4550307219209072e-06 5.4000000000000001e-04 0.0000000000000000e+00  -7.8041385308209360e-06 5.4000000000000001e-04 0.0000000000000000e+00  -7.1890142162871010e-06 5.4000000000000001e-04 0.0000000000000000e+00  -6.6092703856012232e-06 5.4000000000000001e-04 0.0000000000000000e+00  -6.0692604036047706e-06 5.4000000000000001e-04 0.0000000000000000e+00  -5.5662597767967820e-06 5.4000000000000001e-04 0.0000000000000000e+00  -5.0989850877613518e-06 5.4000000000000001e-04 0.0000000000000000e+00  -4.6649139641645949e-06 5.4000000000000001e-04 0.0000000000000000e+00  -4.2659114366222944e-06 5.4000000000000001e-04 0.0000000000000000e+00  -3.8947523937326750e-06 5.4000000000000001e-04 0.0000000000000000e+00  -3.5546359995029716e-06 5.4000000000000001e-04 0.0000000000000000e+00  -3.2378152153709479e-06 5.4000000000000001e-04 0.0000000000000000e+00  -2.9446629657215037e-06 5.4000000000000001e-04 0.0000000000000000e+00  -2.6703374358102002e-06 5.4000000000000001e-04 0.0000000000000000e+00  -2.4113293312531530e-06 5.4000000000000001e-04 0.0000000000000000e+00  -2.1644524176548207e-06 5.4000000000000001e-04 0.0000000000000000e+00  -1.9258063799031610e-06 5.4000000000000001e-04 0.0000000000000000e+00  -1.6908588119489852e-06 5.4000000000000001e-04 0.0000000000000000e+00  -1.4560174675099774e-06 5.4000000000000001e-04 0.0000000000000000e+00  -1.2184228158481833e-06 5.4000000000000001e-04 0.0000000000000000e+00  -9.7485518447107635e-07 5.4000000000000001e-04 0.0000000000000000e+00  -7.1820229647542247e-07 5.4000000000000001e-04 0.0000000000000000e+00  -4.4964062726073553e-07 5.4000000000000001e-04 0.0000000000000000e+00  -1.6510008714432773e-07 5.4000000000000001e-04 0.0000000000000000e+00  1.4253368164547863e-07 5.4000000000000001e-04 0.0000000000000000e+00  4.7280944575655088e-07 5.4000000000000001e-04 0.0000000000000000e+00  8.2974327074483421e-07 5.4000000000000001e-04 0.0000000000000000e+00  1.2174678360906077e-06 5.4000000000000001e-04 0.0000000000000000e+00  1.6334974269930795e-06 5.4000000000000001e-04 0.0000000000000000e+00  2.0819858349003225e-06 5.4000000000000001e-04 0.0000000000000000e+00  2.5630439526451287e-06 5.4000000000000001e-04 0.0000000000000000e+00  3.0801819264205506e-06 5.4000000000000001e-04 0.0000000000000000e+00  3.6319807357212310e-06 5.4000000000000001e-04 0.0000000000000000e+00  4.2197621662259384e-06 5.4000000000000001e-04 0.0000000000000000e+00  4.8434286331698420e-06 5.4000000000000001e-04 0.0000000000000000e+00  5.5018828711276055e-06 5.4000000000000001e-04 0.0000000000000000e+00  6.1962396440141314e-06 5.4000000000000001e-04 0.0000000000000000e+00  6.9228953867284681e-06 5.4000000000000001e-04 0.0000000000000000e+00  7.6790022129156101e-06 5.4000000000000001e-04 0.0000000000000000e+00  8.4657581541391963e-06 5.4000000000000001e-04 0.0000000000000000e+00  9.2797941174159027e-06 5.4000000000000001e-04 0.0000000000000000e+00  1.0119003013334663e-05 5.4000000000000001e-04 0.0000000000000000e+00  1.0979626031174384e-05 5.4000000000000001e-04 0.0000000000000000e+00  1.1856648931803262e-05 5.4000000000000001e-04 0.0000000000000000e+00  1.2756600496163478e-05 5.4000000000000001e-04 0.0000000000000000e+00  1.3654328638267568e-05 5.4000000000000001e-04 0.0000000000000000e+00  1.4558561025528700e-05 5.4000000000000001e-04 0.0000000000000000e+00  1.5463245383622785e-05 5.4000000000000001e-04 0.0000000000000000e+00  1.6365362097160500e-05 5.4000000000000001e-04 0.0000000000000000e+00  1.7242212194192686e-05 5.4000000000000001e-04 0.0000000000000000e+00  1.8101445744261253e-05 5.4000000000000001e-04 0.0000000000000000e+00  1.8928473858950080e-05 5.4000000000000001e-04 0.0000000000000000e+00  1.9716484555810074e-05 5.4000000000000001e-04 0.0000000000000000e+00  2.0459210267394383e-05 5.4000000000000001e-04 0.0000000000000000e+00  2.1124330017542272e-05 5.4000000000000001e-04 0.0000000000000000e+00  2.1714981686260547e-05 5.4000000000000001e-04 0.0000000000000000e+00  2.2205601819456830e-05 5.4000000000000001e-04 0.0000000000000000e+00  2.2627537226673339e-05 5.4000000000000001e-04 0.0000000000000000e+00  2.2920479296448580e-05 5.4000000000000001e-04 0.0000000000000000e+00  2.3077397847298518e-05 5.4000000000000001e-04 0.0000000000000000e+00  2.3111272531460144e-05 5.4000000000000001e-04 0.0000000000000000e+00  2.2967430443152678e-05 5.4000000000000001e-04 0.0000000000000000e+00  2.2705081486184140e-05 5.4000000000000001e-04 0.0000000000000000e+00  2.2256933125070290e-05 5.4000000000000001e-04 0.0000000000000000e+00  2.1590594704627512e-05 5.4000000000000001e-04 0.0000000000000000e+00  2.0715757257798196e-05 5.4000000000000001e-04 0.0000000000000000e+00  1.9659753106001250e-05 5.4000000000000001e-04 0.0000000000000000e+00  1.8386980159047001e-05 5.4000000000000001e-04 0.0000000000000000e+00  1.6900452391238170e-05 5.4000000000000001e-04 0.0000000000000000e+00  1.5222002846546072e-05 5.4000000000000001e-04 0.0000000000000000e+00  1.3332158297655368e-05 5.4000000000000001e-04 0.0000000000000000e+00  1.1322864791415784e-05 5.4000000000000001e-04 0.0000000000000000e+00  9.0727519259613982e-06 5.4000000000000001e-04 0.0000000000000000e+00  6.6661619995473499e-06 5.4000000000000001e-04 0.0000000000000000e+00  4.1125466387445953e-06 5.4000000000000001e-04 0.0000000000000000e+00  1.4183119579882006e-06 5.4000000000000001e-04 0.0000000000000000e+00  -1.3800520554945122e-06 5.4000000000000001e-04 0.0000000000000000e+00  -4.3021451736541484e-06 5.4000000000000001e-04 0.0000000000000000e+00  -7.2935458960385639e-06 5.4000000000000001e-04 0.0000000000000000e+00  -1.0373691027462710e-05 5.4000000000000001e-04 0.0000000000000000e+00  -1.3503822432074511e-05 5.4000000000000001e-04 0.0000000000000000e+00  -1.6676687076146988e-05 5.4000000000000001e-04 0.0000000000000000e+00  -1.9881217678766070e-05 5.4000000000000001e-04 0.0000000000000000e+00  -2.3119154715229757e-05 5.4000000000000001e-04 0.0000000000000000e+00  -2.6365429651071766e-05 5.4000000000000001e-04 0.0000000000000000e+00  -2.9623929125562042e-05 5.4000000000000001e-04 0.0000000000000000e+00  -3.2883952407086881e-05 5.4000000000000001e-04 0.0000000000000000e+00  -3.6142994874219567e-05 5.4000000000000001e-04 0.0000000000000000e+00  -3.9397945062790248e-05 5.4000000000000001e-04 0.0000000000000000e+00  -4.2646570376425661e-05 5.4000000000000001e-04 0.0000000000000000e+00  -4.5887527710668792e-05 5.4000000000000001e-04 0.0000000000000000e+00  -4.9119392460494802e-05 5.4000000000000001e-04 0.0000000000000000e+00  -5.2344763364196486e-05 5.4000000000000001e-04 0.0000000000000000e+00  -5.5562192856276902e-05 5.4000000000000001e-04 0.0000000000000000e+00  -5.8772902898758268e-05 5.4000000000000001e-04 0.0000000000000000e+00  -6.1977728564466305e-05 5.4000000000000001e-04 0.0000000000000000e+00  -6.5177309925879465e-05 5.4000000000000001e-04 0.0000000000000000e+00  -6.8375615179883388e-05 5.4000000000000001e-04 0.0000000000000000e+00  -7.1572812836211938e-05 5.4000000000000001e-04 0.0000000000000000e+00  -7.4771893010053457e-05 5.4000000000000001e-04 0.0000000000000000e+00  -7.7973670594553622e-05 5.4000000000000001e-04 0.0000000000000000e+00  -8.1178429434850135e-05 5.4000000000000001e-04 0.0000000000000000e+00  -8.4390300771132213e-05 5.4000000000000001e-04 0.0000000000000000e+00  -8.7610789239608505e-05 5.4000000000000001e-04 0.0000000000000000e+00  -9.0842042800122301e-05 5.4000000000000001e-04 0.0000000000000000e+00  -9.4083650859888758e-05 5.4000000000000001e-04 0.0000000000000000e+00  -9.7331338059214716e-05 5.4000000000000001e-04 0.0000000000000000e+00  -1.0059568391639823e-04 5.4000000000000001e-04 0.0000000000000000e+00  -1.0387528760040599e-04 5.4000000000000001e-04 0.0000000000000000e+00  -1.0717344729625459e-04 5.4000000000000001e-04 0.0000000000000000e+00  -1.1047696541025591e-04 5.4000000000000001e-04 0.0000000000000000e+00  -1.1380277009977432e-04 5.4000000000000001e-04 0.0000000000000000e+00  -1.1714924993037010e-04 5.4000000000000001e-04 0.0000000000000000e+00  -1.2050443752718502e-04 5.4000000000000001e-04 0.0000000000000000e+00  -1.2388043948784861e-04 5.4000000000000001e-04 0.0000000000000000e+00  -1.2727441365670370e-04 5.4000000000000001e-04 0.0000000000000000e+00  -1.3068724158395625e-04 5.4000000000000001e-04 0.0000000000000000e+00  -1.3411414408199838e-04 5.4000000000000001e-04 0.0000000000000000e+00  -1.3755300885935913e-04 5.4000000000000001e-04 0.0000000000000000e+00  -1.4100783281636631e-04 5.4000000000000001e-04 0.0000000000000000e+00  -1.4447995759160625e-04 5.4000000000000001e-04 0.0000000000000000e+00  -1.4796246880610292e-04 5.4000000000000001e-04 0.0000000000000000e+00  -1.5145519429421995e-04 5.4000000000000001e-04 0.0000000000000000e+00  -1.5495809331497905e-04 5.4000000000000001e-04 0.0000000000000000e+00  -1.5847170244276187e-04 5.4000000000000001e-04 0.0000000000000000e+00  -1.6198700334560197e-04 5.4000000000000001e-04 0.0000000000000000e+00  -1.6551160519879320e-04 5.4000000000000001e-04 0.0000000000000000e+00  -1.6903122614368750e-04 5.4000000000000001e-04 0.0000000000000000e+00  -1.7255677106966594e-04 5.4000000000000001e-04 0.0000000000000000e+00  -1.7608103953473028e-04 5.4000000000000001e-04 0.0000000000000000e+00  -1.7959478264750387e-04 5.4000000000000001e-04 0.0000000000000000e+00  -1.8310291459593811e-04 5.4000000000000001e-04 0.0000000000000000e+00  -1.8660255736349521e-04 5.4000000000000001e-04 0.0000000000000000e+00  -1.9008826168892244e-04 5.4000000000000001e-04 0.0000000000000000e+00  -1.9355502620069684e-04 5.4000000000000001e-04 0.0000000000000000e+00  -1.9701398217019110e-04 5.4000000000000001e-04 0.0000000000000000e+00  -2.0044605584993287e-04 5.4000000000000001e-04 0.0000000000000000e+00  -2.0385317953001153e-04 5.4000000000000001e-04 0.0000000000000000e+00  -2.0723326888793774e-04 5.4000000000000001e-04 0.0000000000000000e+00  -2.1057954008600754e-04 5.4000000000000001e-04 0.0000000000000000e+00  -2.1389696889559045e-04 5.4000000000000001e-04 0.0000000000000000e+00  -2.1718532281102173e-04 5.4000000000000001e-04 0.0000000000000000e+00  -2.2041976987411782e-04 5.4000000000000001e-04 0.0000000000000000e+00  -2.2362958019822495e-04 5.4000000000000001e-04 0.0000000000000000e+00  -2.2674529867943089e-04 5.3055320654859801e-04 0.0000000000000000e+00  -2.2654211889310924e-04 5.2110390805012769e-04 0.0000000000000000e+00  -2.2625552490581011e-04 5.1165186932265326e-04 0.0000000000000000e+00  -2.2581230769553473e-04 5.0219660075231790e-04 0.0000000000000000e+00  -2.2525792159192989e-04 4.9275313073368784e-04 0.0000000000000000e+00  -2.2455262717307312e-04 4.8328134645173591e-04 0.0000000000000000e+00  -2.2373742056839630e-04 4.7382735374819796e-04 0.0000000000000000e+00  -2.2279896619915174e-04 4.6435025197082911e-04 0.0000000000000000e+00  -2.2171897468621754e-04 4.5487009872910639e-04 0.0000000000000000e+00  -2.2050592827566154e-04 4.4539953763001898e-04 0.0000000000000000e+00  -2.1916354889538593e-04 4.3589793049674479e-04 0.0000000000000000e+00  -2.1768333695445382e-04 4.2639546093494992e-04 0.0000000000000000e+00  -2.1607205558516946e-04 4.1687024533359048e-04 0.0000000000000000e+00  -2.1431198137425388e-04 4.0735862065382952e-04 0.0000000000000000e+00  -2.1241969244267710e-04 3.9780169399587735e-04 0.0000000000000000e+00  -2.1037673287227539e-04 3.8822204454268337e-04 0.0000000000000000e+00  -2.0818346414385350e-04 3.7864812422923436e-04 0.0000000000000000e+00  -2.0584287429578743e-04 3.6902899930688700e-04 0.0000000000000000e+00  -2.0334104425390656e-04 3.5941118916487476e-04 0.0000000000000000e+00  -2.0068219058594483e-04 3.4975609080318729e-04 0.0000000000000000e+00  -1.9786926996016461e-04 3.4004368018615252e-04 0.0000000000000000e+00  -1.9487754446239619e-04 3.3034173770315502e-04 0.0000000000000000e+00  -1.9172249104259492e-04 3.2056839380737600e-04 0.0000000000000000e+00  -1.8837587569580494e-04 3.1077771794235616e-04 0.0000000000000000e+00  -1.8486691494314406e-04 3.0091935342560630e-04 0.0000000000000000e+00  -1.8114909394779943e-04 2.9104672934204714e-04 0.0000000000000000e+00  -1.7726090563352625e-04 2.8106978246916303e-04 0.0000000000000000e+