<?xml version="1.0"?>
<VTKFile type="UnstructuredGrid"  version="0.1"  >
<UnstructuredGrid>
<Piece  NumberOfPoints="16512" NumberOfCells="32424">
<Points>
<DataArray  type="Float64"  NumberOfComponents="3"  format="ascii">-25 4.9 0  25 4.9 0  25 -4.9 0  -25 -4.9 0  -10 0 0  10 0 0  -24.80000000000034 4.9 0  -24.60000000000068 4.9 0  -24.40000000000101 4.9 0  -24.20000000000135 4.9 0  -24.00000000000169 4.9 0  -23.80000000000203 4.9 0  -23.60000000000237 4.9 0  -23.40000000000271 4.9 0  -23.20000000000304 4.9 0  -23.00000000000338 4.9 0  -22.80000000000372 4.9 0  -22.60000000000406 4.9 0  -22.40000000000439 4.9 0  -22.20000000000473 4.9 0  -22.00000000000507 4.9 0  -21.80000000000541 4.9 0  -21.60000000000575 4.9 0  -21.40000000000608 4.9 0  -21.20000000000642 4.9 0  -21.00000000000676 4.9 0  -20.8000000000071 4.9 0  -20.60000000000744 4.9 0  -20.40000000000777 4.9 0  -20.20000000000811 4.9 0  -20.00000000000845 4.9 0  -19.80000000000879 4.9 0  -19.60000000000912 4.9 0  -19.40000000000946 4.9 0  -19.2000000000098 4.9 0  -19.00000000001039 4.9 0  -18.80000000001108 4.9 0  -18.60000000001231 4.9 0  -18.40000000001371 4.9 0  -18.2000000000154 4.9 0  -18.00000000001716 4.9 0  -17.80000000001892 4.9 0  -17.60000000002067 4.9 0  -17.40000000002243 4.9 0  -17.20000000002419 4.9 0  -17.00000000002595 4.9 0  -16.80000000002771 4.9 0  -16.60000000002947 4.9 0  -16.40000000003123 4.9 0  -16.20000000003299 4.9 0  -16.00000000003472 4.9 0  -15.80000000003612 4.9 0  -15.60000000003748 4.9 0  -15.40000000003853 4.9 0  -15.20000000003958 4.9 0  -15.00000000004063 4.9 0  -14.80000000004168 4.9 0  -14.60000000004273 4.9 0  -14.40000000004377 4.9 0  -14.20000000004482 4.9 0  -14.00000000004587 4.9 0  -13.80000000004692 4.9 0  -13.60000000004797 4.9 0  -13.40000000004902 4.9 0  -13.20000000005007 4.9 0  -13.00000000005111 4.9 0  -12.80000000005216 4.9 0  -12.60000000005321 4.9 0  -12.40000000005426 4.9 0  -12.20000000005531 4.9 0  -12.00000000005636 4.9 0  -11.80000000005741 4.9 0  -11.60000000005846 4.9 0  -11.4000000000595 4.9 0  -11.20000000006055 4.9 0  -11.0000000000616 4.9 0  -10.80000000006265 4.9 0  -10.6000000000637 4.9 0  -10.40000000006475 4.9 0  -10.2000000000658 4.9 0  -10.00000000006684 4.9 0  -9.800000000067891 4.9 0  -9.60000000006894 4.9 0  -9.400000000069989 4.9 0  -9.200000000070727 4.9 0  -9.00000000007142 4.9 0  -8.800000000071787 4.9 0  -8.600000000072125 4.9 0  -8.400000000072467 4.9 0  -8.200000000072805 4.9 0  -8.000000000073143 4.9 0  -7.800000000073481 4.9 0  -7.60000000007382 4.9 0  -7.400000000074154 4.9 0  -7.200000000074493 4.9 0  -7.000000000074831 4.9 0  -6.800000000075173 4.9 0  -6.600000000075511 4.9 0  -6.400000000075849 4.9 0  -6.200000000076187 4.9 0  -6.000000000076525 4.9 0  -5.800000000076867 4.9 0  -5.600000000077205 4.9 0  -5.400000000077544 4.9 0  -5.200000000077882 4.9 0  -5.00000000007822 4.9 0  -4.800000000078558 4.9 0  -4.600000000078897 4.9 0  -4.400000000079235 4.9 0  -4.200000000079573 4.9 0  -4.000000000079908 4.9 0  -3.800000000080246 4.9 0  -3.600000000080588 4.9 0  -3.400000000080926 4.9 0  -3.200000000081264 4.9 0  -3.000000000081606 4.9 0  -2.800000000081944 4.9 0  -2.600000000082282 4.9 0  -2.40000000008262 4.9 0  -2.200000000082959 4.9 0  -2.000000000083297 4.9 0  -1.800000000083635 4.9 0  -1.600000000083973 4.9 0  -1.400000000084312 4.9 0  -1.20000000008465 4.9 0  -1.000000000084988 4.9 0  -0.8000000000853262 4.9 0  -0.6000000000856645 4.9 0  -0.4000000000860027 4.9 0  -0.2000000000863409 4.9 0  -8.667910833537462e-11 4.9 0  0.1999999999129827 4.9 0  0.3999999999126409 4.9 0  0.5999999999123027 4.9 0  0.7999999999119716 4.9 0  0.9999999999116262 4.9 0  1.199999999911295 4.9 0  1.39999999991095 4.9 0  1.599999999910619 4.9 0  1.799999999910273 4.9 0  1.999999999909939 4.9 0  2.199999999909597 4.9 0  2.399999999909262 4.9 0  2.599999999908921 4.9 0  2.799999999908582 4.9 0  2.999999999908244 4.9 0  3.199999999907906 4.9 0  3.399999999907564 4.9 0  3.599999999907226 4.9 0  3.799999999906888 4.9 0  3.999999999906549 4.9 0  4.199999999906218 4.9 0  4.399999999905873 4.9 0  4.599999999905542 4.9 0  4.799999999905197 4.9 0  4.999999999904865 4.9 0  5.19999999990452 4.9 0  5.399999999904182 4.9 0  5.599999999903844 4.9 0  5.799999999903505 4.9 0  5.999999999903167 4.9 0  6.199999999902829 4.9 0  6.399999999902491 4.9 0  6.599999999902153 4.9 0  6.799999999902379 4.9 0  6.999999999902752 4.9 0  7.199999999903724 4.9 0  7.399999999904807 4.9 0  7.59999999990589 4.9 0  7.799999999906966 4.9 0  7.999999999908056 4.9 0  8.199999999909132 4.9 0  8.399999999910214 4.9 0  8.59999999991129 4.9 0  8.79999999991238 4.9 0  8.999999999913456 4.9 0  9.199999999914539 4.9 0  9.399999999915622 4.9 0  9.599999999916704 4.9 0  9.79999999991778 4.9 0  9.99999999991887 4.9 0  10.19999999991995 4.9 0  10.39999999992103 4.9 0  10.59999999992212 4.9 0  10.79999999992319 4.9 0  10.99999999992428 4.9 0  11.19999999992536 4.9 0  11.39999999992644 4.9 0  11.59999999992752 4.9 0  11.7999999999286 4.9 0  11.99999999992968 4.9 0  12.19999999993077 4.9 0  12.39999999993184 4.9 0  12.59999999993293 4.9 0  12.79999999993401 4.9 0  12.99999999993509 4.9 0  13.19999999993617 4.9 0  13.39999999993726 4.9 0  13.59999999993834 4.9 0  13.79999999993942 4.9 0  13.99999999994051 4.9 0  14.19999999994158 4.9 0  14.39999999994266 4.9 0  14.59999999994375 4.9 0  14.79999999994483 4.9 0  14.99999999994591 4.9 0  15.199999999947 4.9 0  15.39999999994807 4.9 0  15.59999999994915 4.9 0  15.79999999995024 4.9 0  15.99999999995132 4.9 0  16.1999999999524 4.9 0  16.39999999995349 4.9 0  16.59999999995456 4.9 0  16.79999999995565 4.9 0  16.99999999995674 4.9 0  17.19999999995781 4.9 0  17.39999999995889 4.9 0  17.59999999995997 4.9 0  17.79999999996106 4.9 0  17.99999999996214 4.9 0  18.19999999996322 4.9 0  18.3999999999643 4.9 0  18.59999999996538 4.9 0  18.79999999996646 4.9 0  18.99999999996755 4.9 0  19.19999999996863 4.9 0  19.39999999996971 4.9 0  19.59999999997079 4.9 0  19.79999999997187 4.9 0  19.99999999997296 4.9 0  20.19999999997404 4.9 0  20.39999999997512 4.9 0  20.5999999999762 4.9 0  20.79999999997728 4.9 0  20.99999999997836 4.9 0  21.19999999997945 4.9 0  21.39999999998052 4.9 0  21.59999999998161 4.9 0  21.79999999998269 4.9 0  21.99999999998377 4.9 0  22.19999999998485 4.9 0  22.39999999998594 4.9 0  22.59999999998701 4.9 0  22.7999999999881 4.9 0  22.99999999998919 4.9 0  23.19999999999026 4.9 0  23.39999999999135 4.9 0  23.59999999999243 4.9 0  23.79999999999351 4.9 0  23.99999999999459 4.9 0  24.19999999999568 4.9 0  24.39999999999675 4.9 0  24.59999999999783 4.9 0  24.79999999999892 4.9 0  25 4.700000000000415 0  25 4.500000000000868 0  25 4.300000000001562 0  25 4.100000000001831 0  25 3.900000000002072 0  25 3.700000000002459 0  25 3.500000000003038 0  25 3.300000000003653 0  25 3.100000000004294 0  25 2.900000000004838 0  25 2.700000000005293 0  25 2.500000000005957 0  25 2.300000000006508 0  25 2.100000000007153 0  25 1.900000000007722 0  25 1.700000000008417 0  25 1.500000000008938 0  25 1.30000000000963 0  25 1.100000000010154 0  25 0.9000000000108268 0  25 0.7000000000114559 0  25 0.5000000000119762 0  25 0.3000000000126564 0  25 0.1000000000131926 0  25 -0.09999999998679243 0  25 -0.2999999999874587 0  25 -0.4999999999878586 0  25 -0.6999999999884441 0  25 -0.899999999988804 0  25 -1.099999999989427 0  25 -1.299999999989749 0  25 -1.499999999990411 0  25 -1.69999999999073 0  25 -1.899999999991396 0  25 -2.099999999991715 0  25 -2.299999999992381 0  25 -2.499999999993047 0  25 -2.699999999993714 0  25 -2.899999999994227 0  25 -3.099999999994698 0  25 -3.299999999994673 0  25 -3.499999999995339 0  25 -3.699999999996004 0  25 -3.89999999999667 0  25 -4.099999999997335 0  25 -4.299999999998002 0  25 -4.499999999998668 0  25 -4.699999999999335 0  24.80000000000034 -4.9 0  24.60000000000068 -4.9 0  24.40000000000101 -4.9 0  24.20000000000135 -4.9 0  24.00000000000169 -4.9 0  23.80000000000203 -4.9 0  23.60000000000237 -4.9 0  23.40000000000271 -4.9 0  23.20000000000304 -4.9 0  23.00000000000338 -4.9 0  22.80000000000372 -4.9 0  22.60000000000406 -4.9 0  22.40000000000439 -4.9 0  22.20000000000473 -4.9 0  22.00000000000507 -4.9 0  21.80000000000541 -4.9 0  21.60000000000575 -4.9 0  21.40000000000608 -4.9 0  21.20000000000642 -4.9 0  21.00000000000676 -4.9 0  20.8000000000071 -4.9 0  20.60000000000744 -4.9 0  20.40000000000777 -4.9 0  20.20000000000811 -4.9 0  20.00000000000845 -4.9 0  19.80000000000879 -4.9 0  19.60000000000912 -4.9 0  19.40000000000946 -4.9 0  19.2000000000098 -4.9 0  19.00000000001039 -4.9 0  18.80000000001108 -4.9 0  18.60000000001231 -4.9 0  18.40000000001371 -4.9 0  18.2000000000154 -4.9 0  18.00000000001716 -4.9 0  17.80000000001892 -4.9 0  17.60000000002067 -4.9 0  17.40000000002243 -4.9 0  17.20000000002419 -4.9 0  17.00000000002595 -4.9 0  16.80000000002771 -4.9 0  16.60000000002947 -4.9 0  16.40000000003123 -4.9 0  16.20000000003299 -4.9 0  16.00000000003472 -4.9 0  15.80000000003612 -4.9 0  15.60000000003748 -4.9 0  15.40000000003853 -4.9 0  15.20000000003958 -4.9 0  15.00000000004063 -4.9 0  14.80000000004168 -4.9 0  14.60000000004273 -4.9 0  14.40000000004377 -4.9 0  14.20000000004482 -4.9 0  14.00000000004587 -4.9 0  13.80000000004692 -4.9 0  13.60000000004797 -4.9 0  13.40000000004902 -4.9 0  13.20000000005007 -4.9 0  13.00000000005111 -4.9 0  12.80000000005216 -4.9 0  12.60000000005321 -4.9 0  12.40000000005426 -4.9 0  12.20000000005531 -4.9 0  12.00000000005636 -4.9 0  11.80000000005741 -4.9 0  11.60000000005846 -4.9 0  11.4000000000595 -4.9 0  11.20000000006055 -4.9 0  11.0000000000616 -4.9 0  10.80000000006265 -4.9 0  10.6000000000637 -4.9 0  10.40000000006475 -4.9 0  10.2000000000658 -4.9 0  10.00000000006684 -4.9 0  9.800000000067891 -4.9 0  9.60000000006894 -4.9 0  9.400000000069989 -4.9 0  9.200000000070727 -4.9 0  9.00000000007142 -4.9 0  8.800000000071787 -4.9 0  8.600000000072125 -4.9 0  8.400000000072467 -4.9 0  8.200000000072805 -4.9 0  8.000000000073143 -4.9 
[...]
<PointData  Vectors="f_7"> 
<DataArray  type="Float64"  Name="f_7"  NumberOfComponents="3" format="ascii">2.4384910606339331e-04 6.0999999999999997e-04 0.0000000000000000e+00  -2.4383633986086223e-04 6.0999999999999997e-04 0.0000000000000000e+00  0.0000000000000000e+00 0.0000000000000000e+00 0.0000000000000000e+00  0.0000000000000000e+00 0.0000000000000000e+00 0.0000000000000000e+00  3.4189270235353091e-05 3.0727755580261162e-04 0.0000000000000000e+00  -3.3885198240396529e-05 3.0172284715441827e-04 0.0000000000000000e+00  2.4019569622723568e-04 6.0999999999999997e-04 0.0000000000000000e+00  2.3651853866006101e-04 6.0999999999999997e-04 0.0000000000000000e+00  2.3282112256475514e-04 6.0999999999999997e-04 0.0000000000000000e+00  2.2905514771069221e-04 6.0999999999999997e-04 0.0000000000000000e+00  2.2527249856184859e-04 6.0999999999999997e-04 0.0000000000000000e+00  2.2143919012417799e-04 6.0999999999999997e-04 0.0000000000000000e+00  2.1758355501005696e-04 6.0999999999999997e-04 0.0000000000000000e+00  2.1368551009798178e-04 6.0999999999999997e-04 0.0000000000000000e+00  2.0977705382400875e-04 6.0999999999999997e-04 0.0000000000000000e+00  2.0583217803066170e-04 6.0999999999999997e-04 0.0000000000000000e+00  2.0186626902059818e-04 6.0999999999999997e-04 0.0000000000000000e+00  1.9789700115839827e-04 6.0999999999999997e-04 0.0000000000000000e+00  1.9388525842335059e-04 6.0999999999999997e-04 0.0000000000000000e+00  1.8987417198923682e-04 6.0999999999999997e-04 0.0000000000000000e+00  1.8585689479378852e-04 6.0999999999999997e-04 0.0000000000000000e+00  1.8183580003470250e-04 6.0999999999999997e-04 0.0000000000000000e+00  1.7778586944831669e-04 6.0999999999999997e-04 0.0000000000000000e+00  1.7374477008475013e-04 6.0999999999999997e-04 0.0000000000000000e+00  1.6971114023291460e-04 6.0999999999999997e-04 0.0000000000000000e+00  1.6566022891174436e-04 6.0999999999999997e-04 0.0000000000000000e+00  1.6161830617998551e-04 6.0999999999999997e-04 0.0000000000000000e+00  1.5758237145115932e-04 6.0999999999999997e-04 0.0000000000000000e+00  1.5355779945108524e-04 6.0999999999999997e-04 0.0000000000000000e+00  1.4954679352067269e-04 6.0999999999999997e-04 0.0000000000000000e+00  1.4552267712933560e-04 6.0999999999999997e-04 0.0000000000000000e+00  1.4151602778236867e-04 6.0999999999999997e-04 0.0000000000000000e+00  1.3752540514810855e-04 6.0999999999999997e-04 0.0000000000000000e+00  1.3354252035460972e-04 6.0999999999999997e-04 0.0000000000000000e+00  1.2957221062304404e-04 6.0999999999999997e-04 0.0000000000000000e+00  1.2561586807551887e-04 6.0999999999999997e-04 0.0000000000000000e+00  1.2166770488426973e-04 6.0999999999999997e-04 0.0000000000000000e+00  1.1773262186802198e-04 6.0999999999999997e-04 0.0000000000000000e+00  1.1381109160248079e-04 6.0999999999999997e-04 0.0000000000000000e+00  1.0990466937898773e-04 6.0999999999999997e-04 0.0000000000000000e+00  1.0599697507401660e-04 6.0999999999999997e-04 0.0000000000000000e+00  1.0210498533251263e-04 6.0999999999999997e-04 0.0000000000000000e+00  9.8219264419964686e-05 6.0999999999999997e-04 0.0000000000000000e+00  9.4343462035693831e-05 6.0999999999999997e-04 0.0000000000000000e+00  9.0468206531780774e-05 6.0999999999999997e-04 0.0000000000000000e+00  8.6599092296781683e-05 6.0999999999999997e-04 0.0000000000000000e+00  8.2733700234749100e-05 6.0999999999999997e-04 0.0000000000000000e+00  7.8867740815587967e-05 6.0999999999999997e-04 0.0000000000000000e+00  7.4999025350848013e-05 6.0999999999999997e-04 0.0000000000000000e+00  7.1126122349044412e-05 6.0999999999999997e-04 0.0000000000000000e+00  6.7245902940291530e-05 6.0999999999999997e-04 0.0000000000000000e+00  6.3357117789213248e-05 6.0999999999999997e-04 0.0000000000000000e+00  5.9458586986958205e-05 6.0999999999999997e-04 0.0000000000000000e+00  5.5544780386941038e-05 6.0999999999999997e-04 0.0000000000000000e+00  5.1614211959354823e-05 6.0999999999999997e-04 0.0000000000000000e+00  4.7668722500632433e-05 6.0999999999999997e-04 0.0000000000000000e+00  4.3701603034000421e-05 6.0999999999999997e-04 0.0000000000000000e+00  3.9713004604920223e-05 6.0999999999999997e-04 0.0000000000000000e+00  3.5702165169539678e-05 6.0999999999999997e-04 0.0000000000000000e+00  3.1659479275632422e-05 6.0999999999999997e-04 0.0000000000000000e+00  2.7604727324474348e-05 6.0999999999999997e-04 0.0000000000000000e+00  2.3523185509169209e-05 6.0999999999999997e-04 0.0000000000000000e+00  1.9419270500594110e-05 6.0999999999999997e-04 0.0000000000000000e+00  1.5292040675130685e-05 6.0999999999999997e-04 0.0000000000000000e+00  1.1152074859887672e-05 6.0999999999999997e-04 0.0000000000000000e+00  6.9940583875880183e-06 6.0999999999999997e-04 0.0000000000000000e+00  2.8512698212183780e-06 6.0999999999999997e-04 0.0000000000000000e+00  -1.2917781605787628e-06 6.0999999999999997e-04 0.0000000000000000e+00  -5.4195657361878939e-06 6.0999999999999997e-04 0.0000000000000000e+00  -9.5262019672579931e-06 6.0999999999999997e-04 0.0000000000000000e+00  -1.3597460243235804e-05 6.0999999999999997e-04 0.0000000000000000e+00  -1.7589127914786182e-05 6.0999999999999997e-04 0.0000000000000000e+00  -2.1501883620060479e-05 6.0999999999999997e-04 0.0000000000000000e+00  -2.5288679918951303e-05 6.0999999999999997e-04 0.0000000000000000e+00  -2.8980787230509581e-05 6.0999999999999997e-04 0.0000000000000000e+00  -3.2566648425167590e-05 6.0999999999999997e-04 0.0000000000000000e+00  -3.5968343340726752e-05 6.0999999999999997e-04 0.0000000000000000e+00  -3.9148392847562903e-05 6.0999999999999997e-04 0.0000000000000000e+00  -4.2129228350535200e-05 6.0999999999999997e-04 0.0000000000000000e+00  -4.4934276494907706e-05 6.0999999999999997e-04 0.0000000000000000e+00  -4.7438625650207195e-05 6.0999999999999997e-04 0.0000000000000000e+00  -4.9733100574025046e-05 6.0999999999999997e-04 0.0000000000000000e+00  -5.1757881935618095e-05 6.0999999999999997e-04 0.0000000000000000e+00  -5.3484982212074374e-05 6.0999999999999997e-04 0.0000000000000000e+00  -5.4953132613665228e-05 6.0999999999999997e-04 0.0000000000000000e+00  -5.6169687349333704e-05 6.0999999999999997e-04 0.0000000000000000e+00  -5.7112401753045306e-05 6.0999999999999997e-04 0.0000000000000000e+00  -5.7785161173866547e-05 6.0999999999999997e-04 0.0000000000000000e+00  -5.8194604603428018e-05 6.0999999999999997e-04 0.0000000000000000e+00  -5.8356133159386690e-05 6.0999999999999997e-04 0.0000000000000000e+00  -5.8318047538438687e-05 6.0999999999999997e-04 0.0000000000000000e+00  -5.8081727358298308e-05 6.0999999999999997e-04 0.0000000000000000e+00  -5.7621699601448194e-05 6.0999999999999997e-04 0.0000000000000000e+00  -5.6960758581965747e-05 6.0999999999999997e-04 0.0000000000000000e+00  -5.6166057539486885e-05 6.0999999999999997e-04 0.0000000000000000e+00  -5.5227210216591149e-05 6.0999999999999997e-04 0.0000000000000000e+00  -5.4155468237864910e-05 6.0999999999999997e-04 0.0000000000000000e+00  -5.2933051588445324e-05 6.0999999999999997e-04 0.0000000000000000e+00  -5.1619902570443821e-05 6.0999999999999997e-04 0.0000000000000000e+00  -5.0214614508943829e-05 6.0999999999999997e-04 0.0000000000000000e+00  -4.8738999383271010e-05 6.0999999999999997e-04 0.0000000000000000e+00  -4.7164702078604717e-05 6.0999999999999997e-04 0.0000000000000000e+00  -4.5553123863485680e-05 6.0999999999999997e-04 0.0000000000000000e+00  -4.3898378970193740e-05 6.0999999999999997e-04 0.0000000000000000e+00  -4.2197857235096516e-05 6.0999999999999997e-04 0.0000000000000000e+00  -4.0466927571812086e-05 6.0999999999999997e-04 0.0000000000000000e+00  -3.8721549628445252e-05 6.0999999999999997e-04 0.0000000000000000e+00  -3.6967417864543667e-05 6.0999999999999997e-04 0.0000000000000000e+00  -3.5184035301186189e-05 6.0999999999999997e-04 0.0000000000000000e+00  -3.3412665292165228e-05 6.0999999999999997e-04 0.0000000000000000e+00  -3.1646425777530225e-05 6.0999999999999997e-04 0.0000000000000000e+00  -2.9889150399434129e-05 6.0999999999999997e-04 0.0000000000000000e+00  -2.8148714254526670e-05 6.0999999999999997e-04 0.0000000000000000e+00  -2.6414102063284082e-05 6.0999999999999997e-04 0.0000000000000000e+00  -2.4701125945541949e-05 6.0999999999999997e-04 0.0000000000000000e+00  -2.3008253767145309e-05 6.0999999999999997e-04 0.0000000000000000e+00  -2.1335030133780591e-05 6.0999999999999997e-04 0.0000000000000000e+00  -1.9685260540514238e-05 6.0999999999999997e-04 0.0000000000000000e+00  -1.8046876126985851e-05 6.0999999999999997e-04 0.0000000000000000e+00  -1.6432702735037294e-05 6.0999999999999997e-04 0.0000000000000000e+00  -1.4837767119160295e-05 6.0999999999999997e-04 0.0000000000000000e+00  -1.3262767225826754e-05 6.0999999999999997e-04 0.0000000000000000e+00  -1.1704815557645472e-05 6.0999999999999997e-04 0.0000000000000000e+00  -1.0165229747698593e-05 6.0999999999999997e-04 0.0000000000000000e+00  -8.6419316380582090e-06 6.0999999999999997e-04 0.0000000000000000e+00  -7.1337627761208986e-06 6.0999999999999997e-04 0.0000000000000000e+00  -5.6402518919224478e-06 6.0999999999999997e-04 0.0000000000000000e+00  -4.1598672698501546e-06 6.0999999999999997e-04 0.0000000000000000e+00  -2.6918522702628681e-06 6.0999999999999997e-04 0.0000000000000000e+00  -1.2331119438139285e-06 6.0999999999999997e-04 0.0000000000000000e+00  2.1573226175352621e-07 6.0999999999999997e-04 0.0000000000000000e+00  1.6560932226134758e-06 6.0999999999999997e-04 0.0000000000000000e+00  3.0891212543542250e-06 6.0999999999999997e-04 0.0000000000000000e+00  4.5178048514984307e-06 6.0999999999999997e-04 0.0000000000000000e+00  5.9441405776436693e-06 6.0999999999999997e-04 0.0000000000000000e+00  7.3655090587991735e-06 6.0999999999999997e-04 0.0000000000000000e+00  8.7882333992485056e-06 6.0999999999999997e-04 0.0000000000000000e+00  1.0213328729263671e-05 6.0999999999999997e-04 0.0000000000000000e+00  1.1643462747215492e-05 6.0999999999999997e-04 0.0000000000000000e+00  1.3082589244984911e-05 6.0999999999999997e-04 0.0000000000000000e+00  1.4526430250494608e-05 6.0999999999999997e-04 0.0000000000000000e+00  1.5983460771343422e-05 6.0999999999999997e-04 0.0000000000000000e+00  1.7454367893020904e-05 6.0999999999999997e-04 0.0000000000000000e+00  1.8942392790847637e-05 6.0999999999999997e-04 0.0000000000000000e+00  2.0447953900248625e-05 6.0999999999999997e-04 0.0000000000000000e+00  2.1975349979131422e-05 6.0999999999999997e-04 0.0000000000000000e+00  2.3520677444373444e-05 6.0999999999999997e-04 0.0000000000000000e+00  2.5092446537058025e-05 6.0999999999999997e-04 0.0000000000000000e+00  2.6690874528389816e-05 6.0999999999999997e-04 0.0000000000000000e+00  2.8301774173346403e-05 6.0999999999999997e-04 0.0000000000000000e+00  2.9942454897514506e-05 6.0999999999999997e-04 0.0000000000000000e+00  3.1607328388616610e-05 6.0999999999999997e-04 0.0000000000000000e+00  3.3286708772972143e-05 6.0999999999999997e-04 0.0000000000000000e+00  3.4983552965024634e-05 6.0999999999999997e-04 0.0000000000000000e+00  3.6691624489006139e-05 6.0999999999999997e-04 0.0000000000000000e+00  3.8421962995603321e-05 6.0999999999999997e-04 0.0000000000000000e+00  4.0132559998850231e-05 6.0999999999999997e-04 0.0000000000000000e+00  4.1840879852268089e-05 6.0999999999999997e-04 0.0000000000000000e+00  4.3538742199385076e-05 6.0999999999999997e-04 0.0000000000000000e+00  4.5222916050873023e-05 6.0999999999999997e-04 0.0000000000000000e+00  4.6851975800903604e-05 6.0999999999999997e-04 0.0000000000000000e+00  4.8443288902057947e-05 6.0999999999999997e-04 0.0000000000000000e+00  4.9972040811811364e-05 6.0999999999999997e-04 0.0000000000000000e+00  5.1427109172249834e-05 6.0999999999999997e-04 0.0000000000000000e+00  5.2798909823922702e-05 6.0999999999999997e-04 0.0000000000000000e+00  5.4034741567669587e-05 6.0999999999999997e-04 0.0000000000000000e+00  5.5141281632652223e-05 6.0999999999999997e-04 0.0000000000000000e+00  5.6078721666230105e-05 6.0999999999999997e-04 0.0000000000000000e+00  5.6901565768949210e-05 6.0999999999999997e-04 0.0000000000000000e+00  5.7513140911744102e-05 6.0999999999999997e-04 0.0000000000000000e+00  5.7906401961187403e-05 6.0999999999999997e-04 0.0000000000000000e+00  5.8105841308007438e-05 6.0999999999999997e-04 0.0000000000000000e+00  5.8030122937015418e-05 6.0999999999999997e-04 0.0000000000000000e+00  5.7774571417344580e-05 6.0999999999999997e-04 0.0000000000000000e+00  5.7240121502777424e-05 6.0999999999999997e-04 0.0000000000000000e+00  5.6385813686636431e-05 6.0999999999999997e-04 0.0000000000000000e+00  5.5227737565027816e-05 6.0999999999999997e-04 0.0000000000000000e+00  5.3815011281079368e-05 6.0999999999999997e-04 0.0000000000000000e+00  5.2100078101657051e-05 6.0999999999999997e-04 0.0000000000000000e+00  5.0091794281904000e-05 6.0999999999999997e-04 0.0000000000000000e+00  4.7826775280909111e-05 6.0999999999999997e-04 0.0000000000000000e+00  4.5277042569992650e-05 6.0999999999999997e-04 0.0000000000000000e+00  4.2576683224411888e-05 6.0999999999999997e-04 0.0000000000000000e+00  3.9555164946297618e-05 6.0999999999999997e-04 0.0000000000000000e+00  3.6336597094996919e-05 6.0999999999999997e-04 0.0000000000000000e+00  3.2934042148525033e-05 6.0999999999999997e-04 0.0000000000000000e+00  2.9358259134610701e-05 6.0999999999999997e-04 0.0000000000000000e+00  2.5659959419361231e-05 6.0999999999999997e-04 0.0000000000000000e+00  2.1809351681459698e-05 6.0999999999999997e-04 0.0000000000000000e+00  1.7884057994838377e-05 6.0999999999999997e-04 0.0000000000000000e+00  1.3857651504192480e-05 6.0999999999999997e-04 0.0000000000000000e+00  9.7805245422572736e-06 6.0999999999999997e-04 0.0000000000000000e+00  5.6630641768778180e-06 6.0999999999999997e-04 0.0000000000000000e+00  1.5209147794035083e-06 6.0999999999999997e-04 0.0000000000000000e+00  -2.6511803576925298e-06 6.0999999999999997e-04 0.0000000000000000e+00  -6.8175434986595850e-06 6.0999999999999997e-04 0.0000000000000000e+00  -1.0984336126476077e-05 6.0999999999999997e-04 0.0000000000000000e+00  -1.5138358085274355e-05 6.0999999999999997e-04 0.0000000000000000e+00  -1.9275777969273039e-05 6.0999999999999997e-04 0.0000000000000000e+00  -2.3392552269876317e-05 6.0999999999999997e-04 0.0000000000000000e+00  -2.7486867205844594e-05 6.0999999999999997e-04 0.0000000000000000e+00  -3.1556563537458181e-05 6.0999999999999997e-04 0.0000000000000000e+00  -3.5599718014626538e-05 6.0999999999999997e-04 0.0000000000000000e+00  -3.9622342708253880e-05 6.0999999999999997e-04 0.0000000000000000e+00  -4.3619424135099245e-05 6.0999999999999997e-04 0.0000000000000000e+00  -4.7592129621958750e-05 6.0999999999999997e-04 0.0000000000000000e+00  -5.1547107300073597e-05 6.0999999999999997e-04 0.0000000000000000e+00  -5.5480145396741011e-05 6.0999999999999997e-04 0.0000000000000000e+00  -5.9398853953288646e-05 6.0999999999999997e-04 0.0000000000000000e+00  -6.3302986627157589e-05 6.0999999999999997e-04 0.0000000000000000e+00  -6.7196139266180549e-05 6.0999999999999997e-04 0.0000000000000000e+00  -7.1079909887549774e-05 6.0999999999999997e-04 0.0000000000000000e+00  -7.4954652669064791e-05 6.0999999999999997e-04 0.0000000000000000e+00  -7.8826254958782745e-05 6.0999999999999997e-04 0.0000000000000000e+00  -8.2696258594379656e-05 6.0999999999999997e-04 0.0000000000000000e+00  -8.6567268738872843e-05 6.0999999999999997e-04 0.0000000000000000e+00  -9.0439735580847568e-05 6.0999999999999997e-04 0.0000000000000000e+00  -9.4310699498779195e-05 6.0999999999999997e-04 0.0000000000000000e+00  -9.8189573599492250e-05 6.0999999999999997e-04 0.0000000000000000e+00  -1.0207660797801767e-04 6.0999999999999997e-04 0.0000000000000000e+00  -1.0597494251580302e-04 6.0999999999999997e-04 0.0000000000000000e+00  -1.0987276604436800e-04 6.0999999999999997e-04 0.0000000000000000e+00  -1.1378615072437539e-04 6.0999999999999997e-04 0.0000000000000000e+00  -1.1771394069972796e-04 6.0999999999999997e-04 0.0000000000000000e+00  -1.2164494093389519e-04 6.0999999999999997e-04 0.0000000000000000e+00  -1.2559162169704127e-04 6.0999999999999997e-04 0.0000000000000000e+00  -1.2955150558780734e-04 6.0999999999999997e-04 0.0000000000000000e+00  -1.3352567690408222e-04 6.0999999999999997e-04 0.0000000000000000e+00  -1.3750918625916544e-04 6.0999999999999997e-04 0.0000000000000000e+00  -1.4149963345479744e-04 6.0999999999999997e-04 0.0000000000000000e+00  -1.4550227891323099e-04 6.0999999999999997e-04 0.0000000000000000e+00  -1.4951847583831579e-04 6.0999999999999997e-04 0.0000000000000000e+00  -1.5354057098723357e-04 6.0999999999999997e-04 0.0000000000000000e+00  -1.5756906409926765e-04 6.0999999999999997e-04 0.0000000000000000e+00  -1.6160377888276017e-04 6.0999999999999997e-04 0.0000000000000000e+00  -1.6564591992048914e-04 6.0999999999999997e-04 0.0000000000000000e+00  -1.6968568623993124e-04 6.0999999999999997e-04 0.0000000000000000e+00  -1.7373122701385695e-04 6.0999999999999997e-04 0.0000000000000000e+00  -1.7776807221392253e-04 6.0999999999999997e-04 0.0000000000000000e+00  -1.8180742633724595e-04 6.0999999999999997e-04 0.0000000000000000e+00  -1.8584197069192570e-04 6.0999999999999997e-04 0.0000000000000000e+00  -1.8986201486154722e-04 6.0999999999999997e-04 0.0000000000000000e+00  -1.9387303439619960e-04 6.0999999999999997e-04 0.0000000000000000e+00  -1.9787220041031140e-04 6.0999999999999997e-04 0.0000000000000000e+00  -2.0185384711217435e-04 6.0999999999999997e-04 0.0000000000000000e+00  -2.0581282723968093e-04 6.0999999999999997e-04 0.0000000000000000e+00  -2.0976128158624760e-04 6.0999999999999997e-04 0.0000000000000000e+00  -2.1367913980122933e-04 6.0999999999999997e-04 0.0000000000000000e+00  -2.1756876263509235e-04 6.0999999999999997e-04 0.0000000000000000e+00  -2.2142819805731921e-04 6.0999999999999997e-04 0.0000000000000000e+00  -2.2525068781889545e-04 6.0999999999999997e-04 0.0000000000000000e+00  -2.2904174062084241e-04 6.0999999999999997e-04 0.0000000000000000e+00  -2.3280127087907515e-04 6.0999999999999997e-04 0.0000000000000000e+00  -2.3650429495172993e-04 6.0999999999999997e-04 0.0000000000000000e+00  -2.4018127577334278e-04 6.0999999999999997e-04 0.0000000000000000e+00  -2.4376140133990762e-04 5.9915813479240903e-04 0.0000000000000000e+00  -2.4355329021142973e-04 5.8831410467358126e-04 0.0000000000000000e+00  -2.4325987836033562e-04 5.7746788706495493e-04 0.0000000000000000e+00  -2.4280567270536205e-04 5.6661923699988671e-04 0.0000000000000000e+00  -2.4223731860296713e-04 5.5578412531267357e-04 0.0000000000000000e+00  -2.4151405351166970e-04 5.4492120561177128e-04 0.0000000000000000e+00  -2.4067767494394639e-04 5.3407848647725660e-04 0.0000000000000000e+00  -2.3971405671156782e-04 5.2321422229695399e-04 0.0000000000000000e+00  -2.3860419438279614e-04 5.1234923342699165e-04 0.0000000000000000e+00  -2.3735724136204160e-04 5.0149702486542618e-04 0.0000000000000000e+00  -2.3597516139533826e-04 4.9061568220408415e-04 0.0000000000000000e+00  -2.3445071807378997e-04 4.7973668522335698e-04 0.0000000000000000e+00  -2.3278856190662498e-04 4.6883760167983470e-04 0.0000000000000000e+00  -2.3097161083492049e-04 4.5795678953764807e-04 0.0000000000000000e+00  -2.2901562841062646e-04 4.4703234787567796e-04 0.0000000000000000e+00  -2.2690079157516448e-04 4.3608838336886850e-04 0.0000000000000000e+00  -2.2462824749397832e-04 4.2515527905062942e-04 0.0000000000000000e+00  -2.2219845386724398e-04 4.1417923855289855e-04 0.0000000000000000e+00  -2.1959875057782805e-04 4.0320975725271650e-04 0.0000000000000000e+00  -2.1683174558816387e-04 3.9220644371536835e-04 0.0000000000000000e+00  -2.1389868763517923e-04 3.8114738297537724e-04 0.0000000000000000e+00  -2.1077587823668394e-04 3.7010547806576674e-04 0.0000000000000000e+00  -2.0747552523158572e-04 3.5899292462178103e-04 0.0000000000000000e+00  -2.0397106950893694e-04 3.4786798973270716e-04 0.0000000000000000e+00  -2.0028863061268224e-04 3.3667664521036761e-04 0.0000000000000000e+00  -1.9638170273606444e-04 3.2547703715258148e-04 0.0000000000000000e+00  -1.9228672478778644e-04 3.1417144127795750e-04 0.0000000000000000e+00  -