<?xml version="1.0"?>
<VTKFile type="UnstructuredGrid"  version="0.1"  >
<UnstructuredGrid>
<Piece  NumberOfPoints="16512" NumberOfCells="32424">
<Points>
<DataArray  type="Float64"  NumberOfComponents="3"  format="ascii">-25 4.9 0  25 4.9 0  25 -4.9 0  -25 -4.9 0  -10 0 0  10 0 0  -24.80000000000034 4.9 0  -24.60000000000068 4.9 0  -24.40000000000101 4.9 0  -24.20000000000135 4.9 0  -24.00000000000169 4.9 0  -23.80000000000203 4.9 0  -23.60000000000237 4.9 0  -23.40000000000271 4.9 0  -23.20000000000304 4.9 0  -23.00000000000338 4.9 0  -22.80000000000372 4.9 0  -22.60000000000406 4.9 0  -22.40000000000439 4.9 0  -22.20000000000473 4.9 0  -22.00000000000507 4.9 0  -21.80000000000541 4.9 0  -21.60000000000575 4.9 0  -21.40000000000608 4.9 0  -21.20000000000642 4.9 0  -21.00000000000676 4.9 0  -20.8000000000071 4.9 0  -20.60000000000744 4.9 0  -20.40000000000777 4.9 0  -20.20000000000811 4.9 0  -20.00000000000845 4.9 0  -19.80000000000879 4.9 0  -19.60000000000912 4.9 0  -19.40000000000946 4.9 0  -19.2000000000098 4.9 0  -19.00000000001039 4.9 0  -18.80000000001108 4.9 0  -18.60000000001231 4.9 0  -18.40000000001371 4.9 0  -18.2000000000154 4.9 0  -18.00000000001716 4.9 0  -17.80000000001892 4.9 0  -17.60000000002067 4.9 0  -17.40000000002243 4.9 0  -17.20000000002419 4.9 0  -17.00000000002595 4.9 0  -16.80000000002771 4.9 0  -16.60000000002947 4.9 0  -16.40000000003123 4.9 0  -16.20000000003299 4.9 0  -16.00000000003472 4.9 0  -15.80000000003612 4.9 0  -15.60000000003748 4.9 0  -15.40000000003853 4.9 0  -15.20000000003958 4.9 0  -15.00000000004063 4.9 0  -14.80000000004168 4.9 0  -14.60000000004273 4.9 0  -14.40000000004377 4.9 0  -14.20000000004482 4.9 0  -14.00000000004587 4.9 0  -13.80000000004692 4.9 0  -13.60000000004797 4.9 0  -13.40000000004902 4.9 0  -13.20000000005007 4.9 0  -13.00000000005111 4.9 0  -12.80000000005216 4.9 0  -12.60000000005321 4.9 0  -12.40000000005426 4.9 0  -12.20000000005531 4.9 0  -12.00000000005636 4.9 0  -11.80000000005741 4.9 0  -11.60000000005846 4.9 0  -11.4000000000595 4.9 0  -11.20000000006055 4.9 0  -11.0000000000616 4.9 0  -10.80000000006265 4.9 0  -10.6000000000637 4.9 0  -10.40000000006475 4.9 0  -10.2000000000658 4.9 0  -10.00000000006684 4.9 0  -9.800000000067891 4.9 0  -9.60000000006894 4.9 0  -9.400000000069989 4.9 0  -9.200000000070727 4.9 0  -9.00000000007142 4.9 0  -8.800000000071787 4.9 0  -8.600000000072125 4.9 0  -8.400000000072467 4.9 0  -8.200000000072805 4.9 0  -8.000000000073143 4.9 0  -7.800000000073481 4.9 0  -7.60000000007382 4.9 0  -7.400000000074154 4.9 0  -7.200000000074493 4.9 0  -7.000000000074831 4.9 0  -6.800000000075173 4.9 0  -6.600000000075511 4.9 0  -6.400000000075849 4.9 0  -6.200000000076187 4.9 0  -6.000000000076525 4.9 0  -5.800000000076867 4.9 0  -5.600000000077205 4.9 0  -5.400000000077544 4.9 0  -5.200000000077882 4.9 0  -5.00000000007822 4.9 0  -4.800000000078558 4.9 0  -4.600000000078897 4.9 0  -4.400000000079235 4.9 0  -4.200000000079573 4.9 0  -4.000000000079908 4.9 0  -3.800000000080246 4.9 0  -3.600000000080588 4.9 0  -3.400000000080926 4.9 0  -3.200000000081264 4.9 0  -3.000000000081606 4.9 0  -2.800000000081944 4.9 0  -2.600000000082282 4.9 0  -2.40000000008262 4.9 0  -2.200000000082959 4.9 0  -2.000000000083297 4.9 0  -1.800000000083635 4.9 0  -1.600000000083973 4.9 0  -1.400000000084312 4.9 0  -1.20000000008465 4.9 0  -1.000000000084988 4.9 0  -0.8000000000853262 4.9 0  -0.6000000000856645 4.9 0  -0.4000000000860027 4.9 0  -0.2000000000863409 4.9 0  -8.667910833537462e-11 4.9 0  0.1999999999129827 4.9 0  0.3999999999126409 4.9 0  0.5999999999123027 4.9 0  0.7999999999119716 4.9 0  0.9999999999116262 4.9 0  1.199999999911295 4.9 0  1.39999999991095 4.9 0  1.599999999910619 4.9 0  1.799999999910273 4.9 0  1.999999999909939 4.9 0  2.199999999909597 4.9 0  2.399999999909262 4.9 0  2.599999999908921 4.9 0  2.799999999908582 4.9 0  2.999999999908244 4.9 0  3.199999999907906 4.9 0  3.399999999907564 4.9 0  3.599999999907226 4.9 0  3.799999999906888 4.9 0  3.999999999906549 4.9 0  4.199999999906218 4.9 0  4.399999999905873 4.9 0  4.599999999905542 4.9 0  4.799999999905197 4.9 0  4.999999999904865 4.9 0  5.19999999990452 4.9 0  5.399999999904182 4.9 0  5.599999999903844 4.9 0  5.799999999903505 4.9 0  5.999999999903167 4.9 0  6.199999999902829 4.9 0  6.399999999902491 4.9 0  6.599999999902153 4.9 0  6.799999999902379 4.9 0  6.999999999902752 4.9 0  7.199999999903724 4.9 0  7.399999999904807 4.9 0  7.59999999990589 4.9 0  7.799999999906966 4.9 0  7.999999999908056 4.9 0  8.199999999909132 4.9 0  8.399999999910214 4.9 0  8.59999999991129 4.9 0  8.79999999991238 4.9 0  8.999999999913456 4.9 0  9.199999999914539 4.9 0  9.399999999915622 4.9 0  9.599999999916704 4.9 0  9.79999999991778 4.9 0  9.99999999991887 4.9 0  10.19999999991995 4.9 0  10.39999999992103 4.9 0  10.59999999992212 4.9 0  10.79999999992319 4.9 0  10.99999999992428 4.9 0  11.19999999992536 4.9 0  11.39999999992644 4.9 0  11.59999999992752 4.9 0  11.7999999999286 4.9 0  11.99999999992968 4.9 0  12.19999999993077 4.9 0  12.39999999993184 4.9 0  12.59999999993293 4.9 0  12.79999999993401 4.9 0  12.99999999993509 4.9 0  13.19999999993617 4.9 0  13.39999999993726 4.9 0  13.59999999993834 4.9 0  13.79999999993942 4.9 0  13.99999999994051 4.9 0  14.19999999994158 4.9 0  14.39999999994266 4.9 0  14.59999999994375 4.9 0  14.79999999994483 4.9 0  14.99999999994591 4.9 0  15.199999999947 4.9 0  15.39999999994807 4.9 0  15.59999999994915 4.9 0  15.79999999995024 4.9 0  15.99999999995132 4.9 0  16.1999999999524 4.9 0  16.39999999995349 4.9 0  16.59999999995456 4.9 0  16.79999999995565 4.9 0  16.99999999995674 4.9 0  17.19999999995781 4.9 0  17.39999999995889 4.9 0  17.59999999995997 4.9 0  17.79999999996106 4.9 0  17.99999999996214 4.9 0  18.19999999996322 4.9 0  18.3999999999643 4.9 0  18.59999999996538 4.9 0  18.79999999996646 4.9 0  18.99999999996755 4.9 0  19.19999999996863 4.9 0  19.39999999996971 4.9 0  19.59999999997079 4.9 0  19.79999999997187 4.9 0  19.99999999997296 4.9 0  20.19999999997404 4.9 0  20.39999999997512 4.9 0  20.5999999999762 4.9 0  20.79999999997728 4.9 0  20.99999999997836 4.9 0  21.19999999997945 4.9 0  21.39999999998052 4.9 0  21.59999999998161 4.9 0  21.79999999998269 4.9 0  21.99999999998377 4.9 0  22.19999999998485 4.9 0  22.39999999998594 4.9 0  22.59999999998701 4.9 0  22.7999999999881 4.9 0  22.99999999998919 4.9 0  23.19999999999026 4.9 0  23.39999999999135 4.9 0  23.59999999999243 4.9 0  23.79999999999351 4.9 0  23.99999999999459 4.9 0  24.19999999999568 4.9 0  24.39999999999675 4.9 0  24.59999999999783 4.9 0  24.79999999999892 4.9 0  25 4.700000000000415 0  25 4.500000000000868 0  25 4.300000000001562 0  25 4.100000000001831 0  25 3.900000000002072 0  25 3.700000000002459 0  25 3.500000000003038 0  25 3.300000000003653 0  25 3.100000000004294 0  25 2.900000000004838 0  25 2.700000000005293 0  25 2.500000000005957 0  25 2.300000000006508 0  25 2.100000000007153 0  25 1.900000000007722 0  25 1.700000000008417 0  25 1.500000000008938 0  25 1.30000000000963 0  25 1.100000000010154 0  25 0.9000000000108268 0  25 0.7000000000114559 0  25 0.5000000000119762 0  25 0.3000000000126564 0  25 0.1000000000131926 0  25 -0.09999999998679243 0  25 -0.2999999999874587 0  25 -0.4999999999878586 0  25 -0.6999999999884441 0  25 -0.899999999988804 0  25 -1.099999999989427 0  25 -1.299999999989749 0  25 -1.499999999990411 0  25 -1.69999999999073 0  25 -1.899999999991396 0  25 -2.099999999991715 0  25 -2.299999999992381 0  25 -2.499999999993047 0  25 -2.699999999993714 0  25 -2.899999999994227 0  25 -3.099999999994698 0  25 -3.299999999994673 0  25 -3.499999999995339 0  25 -3.699999999996004 0  25 -3.89999999999667 0  25 -4.099999999997335 0  25 -4.299999999998002 0  25 -4.499999999998668 0  25 -4.699999999999335 0  24.80000000000034 -4.9 0  24.60000000000068 -4.9 0  24.40000000000101 -4.9 0  24.20000000000135 -4.9 0  24.00000000000169 -4.9 0  23.80000000000203 -4.9 0  23.60000000000237 -4.9 0  23.40000000000271 -4.9 0  23.20000000000304 -4.9 0  23.00000000000338 -4.9 0  22.80000000000372 -4.9 0  22.60000000000406 -4.9 0  22.40000000000439 -4.9 0  22.20000000000473 -4.9 0  22.00000000000507 -4.9 0  21.80000000000541 -4.9 0  21.60000000000575 -4.9 0  21.40000000000608 -4.9 0  21.20000000000642 -4.9 0  21.00000000000676 -4.9 0  20.8000000000071 -4.9 0  20.60000000000744 -4.9 0  20.40000000000777 -4.9 0  20.20000000000811 -4.9 0  20.00000000000845 -4.9 0  19.80000000000879 -4.9 0  19.60000000000912 -4.9 0  19.40000000000946 -4.9 0  19.2000000000098 -4.9 0  19.00000000001039 -4.9 0  18.80000000001108 -4.9 0  18.60000000001231 -4.9 0  18.40000000001371 -4.9 0  18.2000000000154 -4.9 0  18.00000000001716 -4.9 0  17.80000000001892 -4.9 0  17.60000000002067 -4.9 0  17.40000000002243 -4.9 0  17.20000000002419 -4.9 0  17.00000000002595 -4.9 0  16.80000000002771 -4.9 0  16.60000000002947 -4.9 0  16.40000000003123 -4.9 0  16.20000000003299 -4.9 0  16.00000000003472 -4.9 0  15.80000000003612 -4.9 0  15.60000000003748 -4.9 0  15.40000000003853 -4.9 0  15.20000000003958 -4.9 0  15.00000000004063 -4.9 0  14.80000000004168 -4.9 0  14.60000000004273 -4.9 0  14.40000000004377 -4.9 0  14.20000000004482 -4.9 0  14.00000000004587 -4.9 0  13.80000000004692 -4.9 0  13.60000000004797 -4.9 0  13.40000000004902 -4.9 0  13.20000000005007 -4.9 0  13.00000000005111 -4.9 0  12.80000000005216 -4.9 0  12.60000000005321 -4.9 0  12.40000000005426 -4.9 0  12.20000000005531 -4.9 0  12.00000000005636 -4.9 0  11.80000000005741 -4.9 0  11.60000000005846 -4.9 0  11.4000000000595 -4.9 0  11.20000000006055 -4.9 0  11.0000000000616 -4.9 0  10.80000000006265 -4.9 0  10.6000000000637 -4.9 0  10.40000000006475 -4.9 0  10.2000000000658 -4.9 0  10.00000000006684 -4.9 0  9.800000000067891 -4.9 0  9.60000000006894 -4.9 0  9.400000000069989 -4.9 0  9.200000000070727 -4.9 0  9.00000000007142 -4.9 0  8.800000000071787 -4.9 0  8.600000000072125 -4.9 0  8.400000000072467 -4.9 0  8.200000000072805 -4.9 0  8.000000000073143 -4.9 
[...]
<PointData  Vectors="f_7"> 
<DataArray  type="Float64"  Name="f_7"  NumberOfComponents="3" format="ascii">1.0381574532981380e-04 2.4000000000000001e-04 0.0000000000000000e+00  -1.0390893049536835e-04 2.4000000000000001e-04 0.0000000000000000e+00  0.0000000000000000e+00 0.0000000000000000e+00 0.0000000000000000e+00  0.0000000000000000e+00 0.0000000000000000e+00 0.0000000000000000e+00  1.8804258663062877e-05 1.2009210219509530e-04 0.0000000000000000e+00  -1.8419090736863638e-05 1.1813703537371234e-04 0.0000000000000000e+00  1.0241202422493023e-04 2.4000000000000001e-04 0.0000000000000000e+00  1.0099780334340445e-04 2.4000000000000001e-04 0.0000000000000000e+00  9.9574735874840818e-05 2.4000000000000001e-04 0.0000000000000000e+00  9.8121271962280337e-05 2.4000000000000001e-04 0.0000000000000000e+00  9.6661268886013188e-05 2.4000000000000001e-04 0.0000000000000000e+00  9.5179370749294619e-05 2.4000000000000001e-04 0.0000000000000000e+00  9.3688794427683524e-05 2.4000000000000001e-04 0.0000000000000000e+00  9.2180738410335835e-05 2.4000000000000001e-04 0.0000000000000000e+00  9.0669398043418100e-05 2.4000000000000001e-04 0.0000000000000000e+00  8.9143612382712543e-05 2.4000000000000001e-04 0.0000000000000000e+00  8.7610322928070132e-05 2.4000000000000001e-04 0.0000000000000000e+00  8.6077310830112323e-05 2.4000000000000001e-04 0.0000000000000000e+00  8.4527546969522950e-05 2.4000000000000001e-04 0.0000000000000000e+00  8.2980151848585391e-05 2.4000000000000001e-04 0.0000000000000000e+00  8.1432044438349351e-05 2.4000000000000001e-04 0.0000000000000000e+00  7.9884565350408249e-05 2.4000000000000001e-04 0.0000000000000000e+00  7.8326699109668805e-05 2.4000000000000001e-04 0.0000000000000000e+00  7.6775452758698869e-05 2.4000000000000001e-04 0.0000000000000000e+00  7.5229672841079382e-05 2.4000000000000001e-04 0.0000000000000000e+00  7.3679084131852130e-05 2.4000000000000001e-04 0.0000000000000000e+00  7.2135385121125704e-05 2.4000000000000001e-04 0.0000000000000000e+00  7.0597111566434641e-05 2.4000000000000001e-04 0.0000000000000000e+00  6.9066922487595026e-05 2.4000000000000001e-04 0.0000000000000000e+00  6.7545651969705888e-05 2.4000000000000001e-04 0.0000000000000000e+00  6.6021406173152495e-05 2.4000000000000001e-04 0.0000000000000000e+00  6.4508573488672891e-05 2.4000000000000001e-04 0.0000000000000000e+00  6.3006188585546985e-05 2.4000000000000001e-04 0.0000000000000000e+00  6.1510705459665374e-05 2.4000000000000001e-04 0.0000000000000000e+00  6.0024398163255404e-05 2.4000000000000001e-04 0.0000000000000000e+00  5.8548258211349603e-05 2.4000000000000001e-04 0.0000000000000000e+00  5.7079792576300950e-05 2.4000000000000001e-04 0.0000000000000000e+00  5.5621436004272706e-05 2.4000000000000001e-04 0.0000000000000000e+00  5.4173134244102100e-05 2.4000000000000001e-04 0.0000000000000000e+00  5.2736529362224077e-05 2.4000000000000001e-04 0.0000000000000000e+00  5.1303296073330403e-05 2.4000000000000001e-04 0.0000000000000000e+00  4.9882714950406611e-05 2.4000000000000001e-04 0.0000000000000000e+00  4.8470183534173775e-05 2.4000000000000001e-04 0.0000000000000000e+00  4.7068167265258485e-05 2.4000000000000001e-04 0.0000000000000000e+00  4.5671397996315731e-05 2.4000000000000001e-04 0.0000000000000000e+00  4.4283801724028117e-05 2.4000000000000001e-04 0.0000000000000000e+00  4.2904589467332227e-05 2.4000000000000001e-04 0.0000000000000000e+00  4.1532046357522809e-05 2.4000000000000001e-04 0.0000000000000000e+00  4.0165545916618598e-05 2.4000000000000001e-04 0.0000000000000000e+00  3.8804605874299736e-05 2.4000000000000001e-04 0.0000000000000000e+00  3.7448294204855442e-05 2.4000000000000001e-04 0.0000000000000000e+00  3.6096680691890394e-05 2.4000000000000001e-04 0.0000000000000000e+00  3.4749014066800583e-05 2.4000000000000001e-04 0.0000000000000000e+00  3.3404341878504070e-05 2.4000000000000001e-04 0.0000000000000000e+00  3.2062385818390927e-05 2.4000000000000001e-04 0.0000000000000000e+00  3.0722750124101230e-05 2.4000000000000001e-04 0.0000000000000000e+00  2.9384243630600054e-05 2.4000000000000001e-04 0.0000000000000000e+00  2.8046057435391423e-05 2.4000000000000001e-04 0.0000000000000000e+00  2.6709109078990599e-05 2.4000000000000001e-04 0.0000000000000000e+00  2.5371963379210974e-05 2.4000000000000001e-04 0.0000000000000000e+00  2.4036229152304640e-05 2.4000000000000001e-04 0.0000000000000000e+00  2.2701034596328557e-05 2.4000000000000001e-04 0.0000000000000000e+00  2.1366740332638769e-05 2.4000000000000001e-04 0.0000000000000000e+00  2.0034079357438699e-05 2.4000000000000001e-04 0.0000000000000000e+00  1.8705324020148601e-05 2.4000000000000001e-04 0.0000000000000000e+00  1.7380405412307684e-05 2.4000000000000001e-04 0.0000000000000000e+00  1.6066427680498216e-05 2.4000000000000001e-04 0.0000000000000000e+00  1.4761077870367426e-05 2.4000000000000001e-04 0.0000000000000000e+00  1.3468597713970356e-05 2.4000000000000001e-04 0.0000000000000000e+00  1.2191008103837729e-05 2.4000000000000001e-04 0.0000000000000000e+00  1.0934067835951246e-05 2.4000000000000001e-04 0.0000000000000000e+00  9.7063828606438907e-06 2.4000000000000001e-04 0.0000000000000000e+00  8.5111024079439399e-06 2.4000000000000001e-04 0.0000000000000000e+00  7.3612596472844548e-06 2.4000000000000001e-04 0.0000000000000000e+00  6.2479088870399229e-06 2.4000000000000001e-04 0.0000000000000000e+00  5.1737260129660072e-06 2.4000000000000001e-04 0.0000000000000000e+00  4.1608160080726615e-06 2.4000000000000001e-04 0.0000000000000000e+00  3.2192827363136799e-06 2.4000000000000001e-04 0.0000000000000000e+00  2.3419143564003386e-06 2.4000000000000001e-04 0.0000000000000000e+00  1.5220764954893906e-06 2.4000000000000001e-04 0.0000000000000000e+00  7.9066155373273653e-07 2.4000000000000001e-04 0.0000000000000000e+00  1.2392233108159802e-07 2.4000000000000001e-04 0.0000000000000000e+00  -4.6313911891317890e-07 2.4000000000000001e-04 0.0000000000000000e+00  -9.6606167222867352e-07 2.4000000000000001e-04 0.0000000000000000e+00  -1.3968129336761903e-06 2.4000000000000001e-04 0.0000000000000000e+00  -1.7592380949226170e-06 2.4000000000000001e-04 0.0000000000000000e+00  -2.0499566072741402e-06 2.4000000000000001e-04 0.0000000000000000e+00  -2.2723913606668568e-06 2.4000000000000001e-04 0.0000000000000000e+00  -2.4307731473860452e-06 2.4000000000000001e-04 0.0000000000000000e+00  -2.5322139070378004e-06 2.4000000000000001e-04 0.0000000000000000e+00  -2.5892263483252302e-06 2.4000000000000001e-04 0.0000000000000000e+00  -2.6047846838882382e-06 2.4000000000000001e-04 0.0000000000000000e+00  -2.5765277412221958e-06 2.4000000000000001e-04 0.0000000000000000e+00  -2.5128293649714656e-06 2.4000000000000001e-04 0.0000000000000000e+00  -2.4280032642053566e-06 2.4000000000000001e-04 0.0000000000000000e+00  -2.3218022107007992e-06 2.4000000000000001e-04 0.0000000000000000e+00  -2.1992612599115599e-06 2.4000000000000001e-04 0.0000000000000000e+00  -2.0590652148436598e-06 2.4000000000000001e-04 0.0000000000000000e+00  -1.9127548492762515e-06 2.4000000000000001e-04 0.0000000000000000e+00  -1.7614393968946345e-06 2.4000000000000001e-04 0.0000000000000000e+00  -1.6093630591500391e-06 2.4000000000000001e-04 0.0000000000000000e+00  -1.4551794230455243e-06 2.4000000000000001e-04 0.0000000000000000e+00  -1.3053871230974831e-06 2.4000000000000001e-04 0.0000000000000000e+00  -1.1609248837326182e-06 2.4000000000000001e-04 0.0000000000000000e+00  -1.0227209912669386e-06 2.4000000000000001e-04 0.0000000000000000e+00  -8.9216647213841348e-07 2.4000000000000001e-04 0.0000000000000000e+00  -7.7069285400788514e-07 2.4000000000000001e-04 0.0000000000000000e+00  -6.5945328404380478e-07 2.4000000000000001e-04 0.0000000000000000e+00  -5.5618256815794046e-07 2.4000000000000001e-04 0.0000000000000000e+00  -4.6407994164700888e-07 2.4000000000000001e-04 0.0000000000000000e+00  -3.8275350006029826e-07 2.4000000000000001e-04 0.0000000000000000e+00  -3.1273225327127473e-07 2.4000000000000001e-04 0.0000000000000000e+00  -2.5308900200892029e-07 2.4000000000000001e-04 0.0000000000000000e+00  -2.0342746363350520e-07 2.4000000000000001e-04 0.0000000000000000e+00  -1.6314219092785447e-07 2.4000000000000001e-04 0.0000000000000000e+00  -1.3278754068433320e-07 2.4000000000000001e-04 0.0000000000000000e+00  -1.1117171465625362e-07 2.4000000000000001e-04 0.0000000000000000e+00  -9.7649537365030945e-08 2.4000000000000001e-04 0.0000000000000000e+00  -9.0843639927477099e-08 2.4000000000000001e-04 0.0000000000000000e+00  -9.1143143850081287e-08 2.4000000000000001e-04 0.0000000000000000e+00  -9.6754478100626317e-08 2.4000000000000001e-04 0.0000000000000000e+00  -1.0790312927195087e-07 2.4000000000000001e-04 0.0000000000000000e+00  -1.2295142896326243e-07 2.4000000000000001e-04 0.0000000000000000e+00  -1.4175035144699359e-07 2.4000000000000001e-04 0.0000000000000000e+00  -1.6332074068363346e-07 2.4000000000000001e-04 0.0000000000000000e+00  -1.8687277584775365e-07 2.4000000000000001e-04 0.0000000000000000e+00  -2.1183733696018625e-07 2.4000000000000001e-04 0.0000000000000000e+00  -2.3745972804498817e-07 2.4000000000000001e-04 0.0000000000000000e+00  -2.6272988064077816e-07 2.4000000000000001e-04 0.0000000000000000e+00  -2.8741617801541401e-07 2.4000000000000001e-04 0.0000000000000000e+00  -3.1086455095655606e-07 2.4000000000000001e-04 0.0000000000000000e+00  -3.3256963015838383e-07 2.4000000000000001e-04 0.0000000000000000e+00  -3.5122831624125175e-07 2.4000000000000001e-04 0.0000000000000000e+00  -3.6728923666324769e-07 2.4000000000000001e-04 0.0000000000000000e+00  -3.8002054376417507e-07 2.4000000000000001e-04 0.0000000000000000e+00  -3.8827870494980408e-07 2.4000000000000001e-04 0.0000000000000000e+00  -3.9216155847832747e-07 2.4000000000000001e-04 0.0000000000000000e+00  -3.9104829666640583e-07 2.4000000000000001e-04 0.0000000000000000e+00  -3.8425847030691083e-07 2.4000000000000001e-04 0.0000000000000000e+00  -3.7220190905865661e-07 2.4000000000000001e-04 0.0000000000000000e+00  -3.5439489318243380e-07 2.4000000000000001e-04 0.0000000000000000e+00  -3.3057263729804279e-07 2.4000000000000001e-04 0.0000000000000000e+00  -3.0014659823088661e-07 2.4000000000000001e-04 0.0000000000000000e+00  -2.6319562152267632e-07 2.4000000000000001e-04 0.0000000000000000e+00  -2.1938548744114823e-07 2.4000000000000001e-04 0.0000000000000000e+00  -1.6836447397799994e-07 2.4000000000000001e-04 0.0000000000000000e+00  -1.1024756041803282e-07 2.4000000000000001e-04 0.0000000000000000e+00  -4.4075401994887116e-08 2.4000000000000001e-04 0.0000000000000000e+00  2.9833352919822644e-08 2.4000000000000001e-04 0.0000000000000000e+00  1.1101761390407878e-07 2.4000000000000001e-04 0.0000000000000000e+00  2.0096653482607995e-07 2.4000000000000001e-04 0.0000000000000000e+00  2.9907276435207095e-07 2.4000000000000001e-04 0.0000000000000000e+00  4.0597443388866770e-07 2.4000000000000001e-04 0.0000000000000000e+00  5.2130391152349038e-07 2.4000000000000001e-04 0.0000000000000000e+00  6.4417085101984783e-07 2.4000000000000001e-04 0.0000000000000000e+00  7.7820771535198915e-07 2.4000000000000001e-04 0.0000000000000000e+00  9.1573194921239683e-07 2.4000000000000001e-04 0.0000000000000000e+00  1.0609367617870892e-06 2.4000000000000001e-04 0.0000000000000000e+00  1.2121999635450149e-06 2.4000000000000001e-04 0.0000000000000000e+00  1.3681853221880131e-06 2.4000000000000001e-04 0.0000000000000000e+00  1.5243902305911554e-06 2.4000000000000001e-04 0.0000000000000000e+00  1.6814395655691390e-06 2.4000000000000001e-04 0.0000000000000000e+00  1.8354198989112764e-06 2.4000000000000001e-04 0.0000000000000000e+00  1.9842343942295845e-06 2.4000000000000001e-04 0.0000000000000000e+00  2.1255748947541242e-06 2.4000000000000001e-04 0.0000000000000000e+00  2.2488750618331914e-06 2.4000000000000001e-04 0.0000000000000000e+00  2.3546067045021148e-06 2.4000000000000001e-04 0.0000000000000000e+00  2.4335708388591033e-06 2.4000000000000001e-04 0.0000000000000000e+00  2.4935606319999187e-06 2.4000000000000001e-04 0.0000000000000000e+00  2.5155724638288207e-06 2.4000000000000001e-04 0.0000000000000000e+00  2.4956195198679683e-06 2.4000000000000001e-04 0.0000000000000000e+00  2.4363670674395213e-06 2.4000000000000001e-04 0.0000000000000000e+00  2.3186331847240787e-06 2.4000000000000001e-04 0.0000000000000000e+00  2.1608003379043707e-06 2.4000000000000001e-04 0.0000000000000000e+00  1.9391564230366177e-06 2.4000000000000001e-04 0.0000000000000000e+00  1.6405488223150330e-06 2.4000000000000001e-04 0.0000000000000000e+00  1.2680464312422747e-06 2.4000000000000001e-04 0.0000000000000000e+00  8.2898109801390898e-07 2.4000000000000001e-04 0.0000000000000000e+00  3.0985262923552544e-07 2.4000000000000001e-04 0.0000000000000000e+00  -2.8920775905282087e-07 2.4000000000000001e-04 0.0000000000000000e+00  -9.6152745812567481e-07 2.4000000000000001e-04 0.0000000000000000e+00  -1.7138457761073386e-06 2.4000000000000001e-04 0.0000000000000000e+00  -2.5138621858965523e-06 2.4000000000000001e-04 0.0000000000000000e+00  -3.4055019268264444e-06 2.4000000000000001e-04 0.0000000000000000e+00  -4.3593679327092938e-06 2.4000000000000001e-04 0.0000000000000000e+00  -5.3718997626599792e-06 2.4000000000000001e-04 0.0000000000000000e+00  -6.4411059765429504e-06 2.4000000000000001e-04 0.0000000000000000e+00  -7.5536055699260452e-06 2.4000000000000001e-04 0.0000000000000000e+00  -8.7158941686875882e-06 2.4000000000000001e-04 0.0000000000000000e+00  -9.9085747713008927e-06 2.4000000000000001e-04 0.0000000000000000e+00  -1.1138838692950571e-05 2.4000000000000001e-04 0.0000000000000000e+00  -1.2391757169674494e-05 2.4000000000000001e-04 0.0000000000000000e+00  -1.3664758550062031e-05 2.4000000000000001e-04 0.0000000000000000e+00  -1.4953908109202326e-05 2.4000000000000001e-04 0.0000000000000000e+00  -1.6259142091183198e-05 2.4000000000000001e-04 0.0000000000000000e+00  -1.7571602088372389e-05 2.4000000000000001e-04 0.0000000000000000e+00  -1.8892521920392468e-05 2.4000000000000001e-04 0.0000000000000000e+00  -2.0217662174116236e-05 2.4000000000000001e-04 0.0000000000000000e+00  -2.1546209902425793e-05 2.4000000000000001e-04 0.0000000000000000e+00  -2.2877005586543440e-05 2.4000000000000001e-04 0.0000000000000000e+00  -2.4208945798060803e-05 2.4000000000000001e-04 0.0000000000000000e+00  -2.5541662368236484e-05 2.4000000000000001e-04 0.0000000000000000e+00  -2.6874657788293914e-05 2.4000000000000001e-04 0.0000000000000000e+00  -2.8208210086901087e-05 2.4000000000000001e-04 0.0000000000000000e+00  -2.9542730362165945e-05 2.4000000000000001e-04 0.0000000000000000e+00  -3.0878768493687867e-05 2.4000000000000001e-04 0.0000000000000000e+00  -3.2215148578362445e-05 2.4000000000000001e-04 0.0000000000000000e+00  -3.3553526113583128e-05 2.4000000000000001e-04 0.0000000000000000e+00  -3.4894817860315918e-05 2.4000000000000001e-04 0.0000000000000000e+00  -3.6239216963253397e-05 2.4000000000000001e-04 0.0000000000000000e+00  -3.7587987794382488e-05 2.4000000000000001e-04 0.0000000000000000e+00  -3.8941309763492538e-05 2.4000000000000001e-04 0.0000000000000000e+00  -4.0299295039418171e-05 2.4000000000000001e-04 0.0000000000000000e+00  -4.1663441862169572e-05 2.4000000000000001e-04 0.0000000000000000e+00  -4.3034456706255315e-05 2.4000000000000001e-04 0.0000000000000000e+00  -4.4413238701425958e-05 2.4000000000000001e-04 0.0000000000000000e+00  -4.5799354392762593e-05 2.4000000000000001e-04 0.0000000000000000e+00  -4.7190407997371369e-05 2.4000000000000001e-04 0.0000000000000000e+00  -4.8591759215581438e-05 2.4000000000000001e-04 0.0000000000000000e+00  -5.0002292691245420e-05 2.4000000000000001e-04 0.0000000000000000e+00  -5.1423623118332891e-05 2.4000000000000001e-04 0.0000000000000000e+00  -5.2849074007960339e-05 2.4000000000000001e-04 0.0000000000000000e+00  -5.4286952540010906e-05 2.4000000000000001e-04 0.0000000000000000e+00  -5.5736364595720263e-05 2.4000000000000001e-04 0.0000000000000000e+00  -5.7191386526689489e-05 2.4000000000000001e-04 0.0000000000000000e+00  -5.8657700120487475e-05 2.4000000000000001e-04 0.0000000000000000e+00  -6.0133848707402366e-05 2.4000000000000001e-04 0.0000000000000000e+00  -6.1620198415735552e-05 2.4000000000000001e-04 0.0000000000000000e+00  -6.3114508035292958e-05 2.4000000000000001e-04 0.0000000000000000e+00  -6.4615840542646381e-05 2.4000000000000001e-04 0.0000000000000000e+00  -6.6125771683828784e-05 2.4000000000000001e-04 0.0000000000000000e+00  -6.7644937963436973e-05 2.4000000000000001e-04 0.0000000000000000e+00  -6.9170227478400324e-05 2.4000000000000001e-04 0.0000000000000000e+00  -7.0701381397600256e-05 2.4000000000000001e-04 0.0000000000000000e+00  -7.2238413978672030e-05 2.4000000000000001e-04 0.0000000000000000e+00  -7.3781406764036737e-05 2.4000000000000001e-04 0.0000000000000000e+00  -7.5326255453165094e-05 2.4000000000000001e-04 0.0000000000000000e+00  -7.6876451240985509e-05 2.4000000000000001e-04 0.0000000000000000e+00  -7.8425225019896212e-05 2.4000000000000001e-04 0.0000000000000000e+00  -7.9977703493211029e-05 2.4000000000000001e-04 0.0000000000000000e+00  -8.1530479640668383e-05 2.4000000000000001e-04 0.0000000000000000e+00  -8.3079251396776872e-05 2.4000000000000001e-04 0.0000000000000000e+00  -8.4626219865874231e-05 2.4000000000000001e-04 0.0000000000000000e+00  -8.6169998353754736e-05 2.4000000000000001e-04 0.0000000000000000e+00  -8.7708041323958613e-05 2.4000000000000001e-04 0.0000000000000000e+00  -8.9237998969857396e-05 2.4000000000000001e-04 0.0000000000000000e+00  -9.0764924905775436e-05 2.4000000000000001e-04 0.0000000000000000e+00  -9.2279971637766788e-05 2.4000000000000001e-04 0.0000000000000000e+00  -9.3783951650112886e-05 2.4000000000000001e-04 0.0000000000000000e+00  -9.5275836520552411e-05 2.4000000000000001e-04 0.0000000000000000e+00  -9.6752382543008946e-05 2.4000000000000001e-04 0.0000000000000000e+00  -9.8215828064539146e-05 2.4000000000000001e-04 0.0000000000000000e+00  -9.9666024648753502e-05 2.4000000000000001e-04 0.0000000000000000e+00  -1.0109116184282003e-04 2.4000000000000001e-04 0.0000000000000000e+00  -1.0250490215247576e-04 2.4000000000000001e-04 0.0000000000000000e+00  -1.0387444962281320e-04 2.3584428494784573e-04 0.0000000000000000e+00  -1.0377875600838663e-04 2.3168728760463038e-04 0.0000000000000000e+00  -1.0364374077670691e-04 2.2752884143929997e-04 0.0000000000000000e+00  -1.0343505374116395e-04 2.2336865030513406e-04 0.0000000000000000e+00  -1.0317408069343113e-04 2.1921364469828928e-04 0.0000000000000000e+00  -1.0284212062922330e-04 2.1504499895368467e-04 0.0000000000000000e+00  -1.0245853148752225e-04 2.1088422769683580e-04 0.0000000000000000e+00  -1.0201715203533103e-04 2.0671203045664397e-04 0.0000000000000000e+00  -1.0150943802869347e-04 2.0253778356111584e-04 0.0000000000000000e+00  -1.0093926652160019e-04 1.9836730051853000e-04 0.0000000000000000e+00  -1.0030886177807409e-04 1.9418151677177574e-04 0.0000000000000000e+00  -9.9613847125912315e-05 1.8999450424882534e-04 0.0000000000000000e+00  -9.8857987783566739e-05 1.8579596202690819e-04 0.0000000000000000e+00  -9.8032664694494039e-05 1.8160271349056708e-04 0.0000000000000000e+00  -9.7145995306252163e-05 1.7738742588243442e-04 0.0000000000000000e+00  -9.6189521698246543e-05 1.7316048426048602e-04 0.0000000000000000e+00  -9.5163217490045027e-05 1.6893497334181945e-04 0.0000000000000000e+00  -9.4069150283374256e-05 1.6468732107959876e-04 0.0000000000000000e+00  -9.2900360994798068e-05 1.6043896654130386e-04 0.0000000000000000e+00  -9.1659269455202655e-05 1.5617194859539056e-04 0.0000000000000000e+00  -9.0347717797176983e-05 1.5187719473754539e-04 0.0000000000000000e+00  -8.8953642840966250e-05 1.4758574324244108e-04 0.0000000000000000e+00  -8.7485253252620704e-05 1.4326004270146471e-04 0.0000000000000000e+00  -8.5928658487672410e-05 1.3892482466253313e-04 0.0000000000000000e+00  -8.4298576065143502e-05 1.3455699809683839e-04 0.0000000000000000e+00  -8.2572816577042917e-05 1.3018085841087597e-04 0.0000000000000000e+00  -8.0770256980485124e-05 1.2575538137709133e-04 0.00000