<?xml version="1.0"?>
<VTKFile type="UnstructuredGrid"  version="0.1"  >
<UnstructuredGrid>
<Piece  NumberOfPoints="16512" NumberOfCells="32424">
<Points>
<DataArray  type="Float64"  NumberOfComponents="3"  format="ascii">-25 4.9 0  25 4.9 0  25 -4.9 0  -25 -4.9 0  -10 0 0  10 0 0  -24.80000000000034 4.9 0  -24.60000000000068 4.9 0  -24.40000000000101 4.9 0  -24.20000000000135 4.9 0  -24.00000000000169 4.9 0  -23.80000000000203 4.9 0  -23.60000000000237 4.9 0  -23.40000000000271 4.9 0  -23.20000000000304 4.9 0  -23.00000000000338 4.9 0  -22.80000000000372 4.9 0  -22.60000000000406 4.9 0  -22.40000000000439 4.9 0  -22.20000000000473 4.9 0  -22.00000000000507 4.9 0  -21.80000000000541 4.9 0  -21.60000000000575 4.9 0  -21.40000000000608 4.9 0  -21.20000000000642 4.9 0  -21.00000000000676 4.9 0  -20.8000000000071 4.9 0  -20.60000000000744 4.9 0  -20.40000000000777 4.9 0  -20.20000000000811 4.9 0  -20.00000000000845 4.9 0  -19.80000000000879 4.9 0  -19.60000000000912 4.9 0  -19.40000000000946 4.9 0  -19.2000000000098 4.9 0  -19.00000000001039 4.9 0  -18.80000000001108 4.9 0  -18.60000000001231 4.9 0  -18.40000000001371 4.9 0  -18.2000000000154 4.9 0  -18.00000000001716 4.9 0  -17.80000000001892 4.9 0  -17.60000000002067 4.9 0  -17.40000000002243 4.9 0  -17.20000000002419 4.9 0  -17.00000000002595 4.9 0  -16.80000000002771 4.9 0  -16.60000000002947 4.9 0  -16.40000000003123 4.9 0  -16.20000000003299 4.9 0  -16.00000000003472 4.9 0  -15.80000000003612 4.9 0  -15.60000000003748 4.9 0  -15.40000000003853 4.9 0  -15.20000000003958 4.9 0  -15.00000000004063 4.9 0  -14.80000000004168 4.9 0  -14.60000000004273 4.9 0  -14.40000000004377 4.9 0  -14.20000000004482 4.9 0  -14.00000000004587 4.9 0  -13.80000000004692 4.9 0  -13.60000000004797 4.9 0  -13.40000000004902 4.9 0  -13.20000000005007 4.9 0  -13.00000000005111 4.9 0  -12.80000000005216 4.9 0  -12.60000000005321 4.9 0  -12.40000000005426 4.9 0  -12.20000000005531 4.9 0  -12.00000000005636 4.9 0  -11.80000000005741 4.9 0  -11.60000000005846 4.9 0  -11.4000000000595 4.9 0  -11.20000000006055 4.9 0  -11.0000000000616 4.9 0  -10.80000000006265 4.9 0  -10.6000000000637 4.9 0  -10.40000000006475 4.9 0  -10.2000000000658 4.9 0  -10.00000000006684 4.9 0  -9.800000000067891 4.9 0  -9.60000000006894 4.9 0  -9.400000000069989 4.9 0  -9.200000000070727 4.9 0  -9.00000000007142 4.9 0  -8.800000000071787 4.9 0  -8.600000000072125 4.9 0  -8.400000000072467 4.9 0  -8.200000000072805 4.9 0  -8.000000000073143 4.9 0  -7.800000000073481 4.9 0  -7.60000000007382 4.9 0  -7.400000000074154 4.9 0  -7.200000000074493 4.9 0  -7.000000000074831 4.9 0  -6.800000000075173 4.9 0  -6.600000000075511 4.9 0  -6.400000000075849 4.9 0  -6.200000000076187 4.9 0  -6.000000000076525 4.9 0  -5.800000000076867 4.9 0  -5.600000000077205 4.9 0  -5.400000000077544 4.9 0  -5.200000000077882 4.9 0  -5.00000000007822 4.9 0  -4.800000000078558 4.9 0  -4.600000000078897 4.9 0  -4.400000000079235 4.9 0  -4.200000000079573 4.9 0  -4.000000000079908 4.9 0  -3.800000000080246 4.9 0  -3.600000000080588 4.9 0  -3.400000000080926 4.9 0  -3.200000000081264 4.9 0  -3.000000000081606 4.9 0  -2.800000000081944 4.9 0  -2.600000000082282 4.9 0  -2.40000000008262 4.9 0  -2.200000000082959 4.9 0  -2.000000000083297 4.9 0  -1.800000000083635 4.9 0  -1.600000000083973 4.9 0  -1.400000000084312 4.9 0  -1.20000000008465 4.9 0  -1.000000000084988 4.9 0  -0.8000000000853262 4.9 0  -0.6000000000856645 4.9 0  -0.4000000000860027 4.9 0  -0.2000000000863409 4.9 0  -8.667910833537462e-11 4.9 0  0.1999999999129827 4.9 0  0.3999999999126409 4.9 0  0.5999999999123027 4.9 0  0.7999999999119716 4.9 0  0.9999999999116262 4.9 0  1.199999999911295 4.9 0  1.39999999991095 4.9 0  1.599999999910619 4.9 0  1.799999999910273 4.9 0  1.999999999909939 4.9 0  2.199999999909597 4.9 0  2.399999999909262 4.9 0  2.599999999908921 4.9 0  2.799999999908582 4.9 0  2.999999999908244 4.9 0  3.199999999907906 4.9 0  3.399999999907564 4.9 0  3.599999999907226 4.9 0  3.799999999906888 4.9 0  3.999999999906549 4.9 0  4.199999999906218 4.9 0  4.399999999905873 4.9 0  4.599999999905542 4.9 0  4.799999999905197 4.9 0  4.999999999904865 4.9 0  5.19999999990452 4.9 0  5.399999999904182 4.9 0  5.599999999903844 4.9 0  5.799999999903505 4.9 0  5.999999999903167 4.9 0  6.199999999902829 4.9 0  6.399999999902491 4.9 0  6.599999999902153 4.9 0  6.799999999902379 4.9 0  6.999999999902752 4.9 0  7.199999999903724 4.9 0  7.399999999904807 4.9 0  7.59999999990589 4.9 0  7.799999999906966 4.9 0  7.999999999908056 4.9 0  8.199999999909132 4.9 0  8.399999999910214 4.9 0  8.59999999991129 4.9 0  8.79999999991238 4.9 0  8.999999999913456 4.9 0  9.199999999914539 4.9 0  9.399999999915622 4.9 0  9.599999999916704 4.9 0  9.79999999991778 4.9 0  9.99999999991887 4.9 0  10.19999999991995 4.9 0  10.39999999992103 4.9 0  10.59999999992212 4.9 0  10.79999999992319 4.9 0  10.99999999992428 4.9 0  11.19999999992536 4.9 0  11.39999999992644 4.9 0  11.59999999992752 4.9 0  11.7999999999286 4.9 0  11.99999999992968 4.9 0  12.19999999993077 4.9 0  12.39999999993184 4.9 0  12.59999999993293 4.9 0  12.79999999993401 4.9 0  12.99999999993509 4.9 0  13.19999999993617 4.9 0  13.39999999993726 4.9 0  13.59999999993834 4.9 0  13.79999999993942 4.9 0  13.99999999994051 4.9 0  14.19999999994158 4.9 0  14.39999999994266 4.9 0  14.59999999994375 4.9 0  14.79999999994483 4.9 0  14.99999999994591 4.9 0  15.199999999947 4.9 0  15.39999999994807 4.9 0  15.59999999994915 4.9 0  15.79999999995024 4.9 0  15.99999999995132 4.9 0  16.1999999999524 4.9 0  16.39999999995349 4.9 0  16.59999999995456 4.9 0  16.79999999995565 4.9 0  16.99999999995674 4.9 0  17.19999999995781 4.9 0  17.39999999995889 4.9 0  17.59999999995997 4.9 0  17.79999999996106 4.9 0  17.99999999996214 4.9 0  18.19999999996322 4.9 0  18.3999999999643 4.9 0  18.59999999996538 4.9 0  18.79999999996646 4.9 0  18.99999999996755 4.9 0  19.19999999996863 4.9 0  19.39999999996971 4.9 0  19.59999999997079 4.9 0  19.79999999997187 4.9 0  19.99999999997296 4.9 0  20.19999999997404 4.9 0  20.39999999997512 4.9 0  20.5999999999762 4.9 0  20.79999999997728 4.9 0  20.99999999997836 4.9 0  21.19999999997945 4.9 0  21.39999999998052 4.9 0  21.59999999998161 4.9 0  21.79999999998269 4.9 0  21.99999999998377 4.9 0  22.19999999998485 4.9 0  22.39999999998594 4.9 0  22.59999999998701 4.9 0  22.7999999999881 4.9 0  22.99999999998919 4.9 0  23.19999999999026 4.9 0  23.39999999999135 4.9 0  23.59999999999243 4.9 0  23.79999999999351 4.9 0  23.99999999999459 4.9 0  24.19999999999568 4.9 0  24.39999999999675 4.9 0  24.59999999999783 4.9 0  24.79999999999892 4.9 0  25 4.700000000000415 0  25 4.500000000000868 0  25 4.300000000001562 0  25 4.100000000001831 0  25 3.900000000002072 0  25 3.700000000002459 0  25 3.500000000003038 0  25 3.300000000003653 0  25 3.100000000004294 0  25 2.900000000004838 0  25 2.700000000005293 0  25 2.500000000005957 0  25 2.300000000006508 0  25 2.100000000007153 0  25 1.900000000007722 0  25 1.700000000008417 0  25 1.500000000008938 0  25 1.30000000000963 0  25 1.100000000010154 0  25 0.9000000000108268 0  25 0.7000000000114559 0  25 0.5000000000119762 0  25 0.3000000000126564 0  25 0.1000000000131926 0  25 -0.09999999998679243 0  25 -0.2999999999874587 0  25 -0.4999999999878586 0  25 -0.6999999999884441 0  25 -0.899999999988804 0  25 -1.099999999989427 0  25 -1.299999999989749 0  25 -1.499999999990411 0  25 -1.69999999999073 0  25 -1.899999999991396 0  25 -2.099999999991715 0  25 -2.299999999992381 0  25 -2.499999999993047 0  25 -2.699999999993714 0  25 -2.899999999994227 0  25 -3.099999999994698 0  25 -3.299999999994673 0  25 -3.499999999995339 0  25 -3.699999999996004 0  25 -3.89999999999667 0  25 -4.099999999997335 0  25 -4.299999999998002 0  25 -4.499999999998668 0  25 -4.699999999999335 0  24.80000000000034 -4.9 0  24.60000000000068 -4.9 0  24.40000000000101 -4.9 0  24.20000000000135 -4.9 0  24.00000000000169 -4.9 0  23.80000000000203 -4.9 0  23.60000000000237 -4.9 0  23.40000000000271 -4.9 0  23.20000000000304 -4.9 0  23.00000000000338 -4.9 0  22.80000000000372 -4.9 0  22.60000000000406 -4.9 0  22.40000000000439 -4.9 0  22.20000000000473 -4.9 0  22.00000000000507 -4.9 0  21.80000000000541 -4.9 0  21.60000000000575 -4.9 0  21.40000000000608 -4.9 0  21.20000000000642 -4.9 0  21.00000000000676 -4.9 0  20.8000000000071 -4.9 0  20.60000000000744 -4.9 0  20.40000000000777 -4.9 0  20.20000000000811 -4.9 0  20.00000000000845 -4.9 0  19.80000000000879 -4.9 0  19.60000000000912 -4.9 0  19.40000000000946 -4.9 0  19.2000000000098 -4.9 0  19.00000000001039 -4.9 0  18.80000000001108 -4.9 0  18.60000000001231 -4.9 0  18.40000000001371 -4.9 0  18.2000000000154 -4.9 0  18.00000000001716 -4.9 0  17.80000000001892 -4.9 0  17.60000000002067 -4.9 0  17.40000000002243 -4.9 0  17.20000000002419 -4.9 0  17.00000000002595 -4.9 0  16.80000000002771 -4.9 0  16.60000000002947 -4.9 0  16.40000000003123 -4.9 0  16.20000000003299 -4.9 0  16.00000000003472 -4.9 0  15.80000000003612 -4.9 0  15.60000000003748 -4.9 0  15.40000000003853 -4.9 0  15.20000000003958 -4.9 0  15.00000000004063 -4.9 0  14.80000000004168 -4.9 0  14.60000000004273 -4.9 0  14.40000000004377 -4.9 0  14.20000000004482 -4.9 0  14.00000000004587 -4.9 0  13.80000000004692 -4.9 0  13.60000000004797 -4.9 0  13.40000000004902 -4.9 0  13.20000000005007 -4.9 0  13.00000000005111 -4.9 0  12.80000000005216 -4.9 0  12.60000000005321 -4.9 0  12.40000000005426 -4.9 0  12.20000000005531 -4.9 0  12.00000000005636 -4.9 0  11.80000000005741 -4.9 0  11.60000000005846 -4.9 0  11.4000000000595 -4.9 0  11.20000000006055 -4.9 0  11.0000000000616 -4.9 0  10.80000000006265 -4.9 0  10.6000000000637 -4.9 0  10.40000000006475 -4.9 0  10.2000000000658 -4.9 0  10.00000000006684 -4.9 0  9.800000000067891 -4.9 0  9.60000000006894 -4.9 0  9.400000000069989 -4.9 0  9.200000000070727 -4.9 0  9.00000000007142 -4.9 0  8.800000000071787 -4.9 0  8.600000000072125 -4.9 0  8.400000000072467 -4.9 0  8.200000000072805 -4.9 0  8.000000000073143 -4.9 
[...]
<PointData  Vectors="f_7"> 
<DataArray  type="Float64"  Name="f_7"  NumberOfComponents="3" format="ascii">3.2314047197732899e-04 8.3500000000000002e-04 0.0000000000000000e+00  -3.2301303520873597e-04 8.3500000000000002e-04 0.0000000000000000e+00  0.0000000000000000e+00 0.0000000000000000e+00 0.0000000000000000e+00  0.0000000000000000e+00 0.0000000000000000e+00 0.0000000000000000e+00  4.4892654304664800e-05 4.1395852768071544e-04 0.0000000000000000e+00  -4.5620292220908048e-05 4.0224120142677246e-04 0.0000000000000000e+00  3.1809279574148081e-04 8.3500000000000002e-04 0.0000000000000000e+00  3.1301418957465401e-04 8.3500000000000002e-04 0.0000000000000000e+00  3.0790903163637081e-04 8.3500000000000002e-04 0.0000000000000000e+00  3.0271470998270873e-04 8.3500000000000002e-04 0.0000000000000000e+00  2.9749741860791122e-04 8.3500000000000002e-04 0.0000000000000000e+00  2.9221339425661346e-04 8.3500000000000002e-04 0.0000000000000000e+00  2.8689849882101922e-04 8.3500000000000002e-04 0.0000000000000000e+00  2.8152645894284899e-04 8.3500000000000002e-04 0.0000000000000000e+00  2.7613887139040411e-04 8.3500000000000002e-04 0.0000000000000000e+00  2.7070135733196879e-04 8.3500000000000002e-04 0.0000000000000000e+00  2.6523373446018795e-04 8.3500000000000002e-04 0.0000000000000000e+00  2.5975906601644744e-04 8.3500000000000002e-04 0.0000000000000000e+00  2.5422600351724262e-04 8.3500000000000002e-04 0.0000000000000000e+00  2.4869062188062559e-04 8.3500000000000002e-04 0.0000000000000000e+00  2.4314408428910243e-04 8.3500000000000002e-04 0.0000000000000000e+00  2.3758901656049065e-04 8.3500000000000002e-04 0.0000000000000000e+00  2.3199275563549754e-04 8.3500000000000002e-04 0.0000000000000000e+00  2.2640377669840770e-04 8.3500000000000002e-04 0.0000000000000000e+00  2.2082115500416741e-04 8.3500000000000002e-04 0.0000000000000000e+00  2.1521158924341972e-04 8.3500000000000002e-04 0.0000000000000000e+00  2.0960912370392786e-04 8.3500000000000002e-04 0.0000000000000000e+00  2.0401003304473646e-04 8.3500000000000002e-04 0.0000000000000000e+00  1.9842084002948257e-04 8.3500000000000002e-04 0.0000000000000000e+00  1.9284460454057538e-04 8.3500000000000002e-04 0.0000000000000000e+00  1.8724671832885038e-04 8.3500000000000002e-04 0.0000000000000000e+00  1.8166553156854563e-04 8.3500000000000002e-04 0.0000000000000000e+00  1.7609964955206584e-04 8.3500000000000002e-04 0.0000000000000000e+00  1.7053805960145753e-04 8.3500000000000002e-04 0.0000000000000000e+00  1.6498675770152874e-04 8.3500000000000002e-04 0.0000000000000000e+00  1.5944689376015111e-04 8.3500000000000002e-04 0.0000000000000000e+00  1.5391073270587654e-04 8.3500000000000002e-04 0.0000000000000000e+00  1.4838414223396359e-04 8.3500000000000002e-04 0.0000000000000000e+00  1.4286814617769263e-04 8.3500000000000002e-04 0.0000000000000000e+00  1.3736302968549527e-04 8.3500000000000002e-04 0.0000000000000000e+00  1.3184928904911818e-04 8.3500000000000002e-04 0.0000000000000000e+00  1.2634587182392253e-04 8.3500000000000002e-04 0.0000000000000000e+00  1.2084115131216599e-04 8.3500000000000002e-04 0.0000000000000000e+00  1.1533827079889809e-04 8.3500000000000002e-04 0.0000000000000000e+00  1.0982701618365011e-04 8.3500000000000002e-04 0.0000000000000000e+00  1.0431198250401528e-04 8.3500000000000002e-04 0.0000000000000000e+00  9.8789452361490692e-05 8.3500000000000002e-04 0.0000000000000000e+00  9.3253443280329608e-05 8.3500000000000002e-04 0.0000000000000000e+00  8.7700473839520237e-05 8.3500000000000002e-04 0.0000000000000000e+00  8.2128358737937573e-05 8.3500000000000002e-04 0.0000000000000000e+00  7.6532219735556172e-05 8.3500000000000002e-04 0.0000000000000000e+00  7.0909278598794718e-05 8.3500000000000002e-04 0.0000000000000000e+00  6.5258545277537903e-05 8.3500000000000002e-04 0.0000000000000000e+00  5.9570239674065453e-05 8.3500000000000002e-04 0.0000000000000000e+00  5.3841853943130307e-05 8.3500000000000002e-04 0.0000000000000000e+00  4.8077967117876912e-05 8.3500000000000002e-04 0.0000000000000000e+00  4.2267260134656228e-05 8.3500000000000002e-04 0.0000000000000000e+00  3.6412174778397521e-05 8.3500000000000002e-04 0.0000000000000000e+00  3.0510319601624775e-05 8.3500000000000002e-04 0.0000000000000000e+00  2.4543632234147521e-05 8.3500000000000002e-04 0.0000000000000000e+00  1.8553401928466885e-05 8.3500000000000002e-04 0.0000000000000000e+00  1.2510366173841610e-05 8.3500000000000002e-04 0.0000000000000000e+00  6.4243019053595181e-06 8.3500000000000002e-04 0.0000000000000000e+00  2.9416400165779429e-07 8.3500000000000002e-04 0.0000000000000000e+00  -5.8590666139783945e-06 8.3500000000000002e-04 0.0000000000000000e+00  -1.2044557283685961e-05 8.3500000000000002e-04 0.0000000000000000e+00  -1.8200740698587760e-05 8.3500000000000002e-04 0.0000000000000000e+00  -2.4355262341756639e-05 8.3500000000000002e-04 0.0000000000000000e+00  -3.0478705509594181e-05 8.3500000000000002e-04 0.0000000000000000e+00  -3.6560149342063891e-05 8.3500000000000002e-04 0.0000000000000000e+00  -4.2571525085220302e-05 8.3500000000000002e-04 0.0000000000000000e+00  -4.8435147029569292e-05 8.3500000000000002e-04 0.0000000000000000e+00  -5.4149918369054265e-05 8.3500000000000002e-04 0.0000000000000000e+00  -5.9631809626491824e-05 8.3500000000000002e-04 0.0000000000000000e+00  -6.4935910353404721e-05 8.3500000000000002e-04 0.0000000000000000e+00  -7.0042292531487807e-05 8.3500000000000002e-04 0.0000000000000000e+00  -7.4812074559241066e-05 8.3500000000000002e-04 0.0000000000000000e+00  -7.9180089803655937e-05 8.3500000000000002e-04 0.0000000000000000e+00  -8.3187487623489969e-05 8.3500000000000002e-04 0.0000000000000000e+00  -8.6875787861914852e-05 8.3500000000000002e-04 0.0000000000000000e+00  -9.0033970734091943e-05 8.3500000000000002e-04 0.0000000000000000e+00  -9.2818726927176376e-05 8.3500000000000002e-04 0.0000000000000000e+00  -9.5130258322432041e-05 8.3500000000000002e-04 0.0000000000000000e+00  -9.6928023720288664e-05 8.3500000000000002e-04 0.0000000000000000e+00  -9.8282978798247252e-05 8.3500000000000002e-04 0.0000000000000000e+00  -9.9213309047184301e-05 8.3500000000000002e-04 0.0000000000000000e+00  -9.9689302103127535e-05 8.3500000000000002e-04 0.0000000000000000e+00  -9.9725952389831941e-05 8.3500000000000002e-04 0.0000000000000000e+00  -9.9343208073914883e-05 8.3500000000000002e-04 0.0000000000000000e+00  -9.8577706211975510e-05 8.3500000000000002e-04 0.0000000000000000e+00  -9.7510794265315281e-05 8.3500000000000002e-04 0.0000000000000000e+00  -9.6154705791100763e-05 8.3500000000000002e-04 0.0000000000000000e+00  -9.4482166313925259e-05 8.3500000000000002e-04 0.0000000000000000e+00  -9.2541713494163186e-05 8.3500000000000002e-04 0.0000000000000000e+00  -9.0435134964755826e-05 8.3500000000000002e-04 0.0000000000000000e+00  -8.8154381055997543e-05 8.3500000000000002e-04 0.0000000000000000e+00  -8.5727401259268028e-05 8.3500000000000002e-04 0.0000000000000000e+00  -8.3134638213271559e-05 8.3500000000000002e-04 0.0000000000000000e+00  -8.0463855889823118e-05 8.3500000000000002e-04 0.0000000000000000e+00  -7.7717735832604919e-05 8.3500000000000002e-04 0.0000000000000000e+00  -7.4927206181852417e-05 8.3500000000000002e-04 0.0000000000000000e+00  -7.2067125124180087e-05 8.3500000000000002e-04 0.0000000000000000e+00  -6.9203151126235666e-05 8.3500000000000002e-04 0.0000000000000000e+00  -6.6334872891998651e-05 8.3500000000000002e-04 0.0000000000000000e+00  -6.3462968020144115e-05 8.3500000000000002e-04 0.0000000000000000e+00  -6.0601701056604680e-05 8.3500000000000002e-04 0.0000000000000000e+00  -5.7766928648957105e-05 8.3500000000000002e-04 0.0000000000000000e+00  -5.4965710437558005e-05 8.3500000000000002e-04 0.0000000000000000e+00  -5.2172741872334074e-05 8.3500000000000002e-04 0.0000000000000000e+00  -4.9429483593349275e-05 8.3500000000000002e-04 0.0000000000000000e+00  -4.6728158277207622e-05 8.3500000000000002e-04 0.0000000000000000e+00  -4.4072309797556167e-05 8.3500000000000002e-04 0.0000000000000000e+00  -4.1464088632167775e-05 8.3500000000000002e-04 0.0000000000000000e+00  -3.8892494281983541e-05 8.3500000000000002e-04 0.0000000000000000e+00  -3.6367722922869787e-05 8.3500000000000002e-04 0.0000000000000000e+00  -3.3889852860567352e-05 8.3500000000000002e-04 0.0000000000000000e+00  -3.1454602367831878e-05 8.3500000000000002e-04 0.0000000000000000e+00  -2.9063002622562394e-05 8.3500000000000002e-04 0.0000000000000000e+00  -2.6701202787184066e-05 8.3500000000000002e-04 0.0000000000000000e+00  -2.4381016676845098e-05 8.3500000000000002e-04 0.0000000000000000e+00  -2.2093198967125284e-05 8.3500000000000002e-04 0.0000000000000000e+00  -1.9839492411378736e-05 8.3500000000000002e-04 0.0000000000000000e+00  -1.7612834971020229e-05 8.3500000000000002e-04 0.0000000000000000e+00  -1.5414322841137919e-05 8.3500000000000002e-04 0.0000000000000000e+00  -1.3239463870974691e-05 8.3500000000000002e-04 0.0000000000000000e+00  -1.1085293792101205e-05 8.3500000000000002e-04 0.0000000000000000e+00  -8.9498224711396700e-06 8.3500000000000002e-04 0.0000000000000000e+00  -6.8297221357941420e-06 8.3500000000000002e-04 0.0000000000000000e+00  -4.7216525383109234e-06 8.3500000000000002e-04 0.0000000000000000e+00  -2.6217197190141678e-06 8.3500000000000002e-04 0.0000000000000000e+00  -5.2890544298991891e-07 8.3500000000000002e-04 0.0000000000000000e+00  1.5596907592209222e-06 8.3500000000000002e-04 0.0000000000000000e+00  3.6487476441025265e-06 8.3500000000000002e-04 0.0000000000000000e+00  5.7400353863569248e-06 8.3500000000000002e-04 0.0000000000000000e+00  7.8374081088549390e-06 8.3500000000000002e-04 0.0000000000000000e+00  9.9425813427984147e-06 8.3500000000000002e-04 0.0000000000000000e+00  1.2060597857885589e-05 8.3500000000000002e-04 0.0000000000000000e+00  1.4194675977808093e-05 8.3500000000000002e-04 0.0000000000000000e+00  1.6349641083625088e-05 8.3500000000000002e-04 0.0000000000000000e+00  1.8527840834371707e-05 8.3500000000000002e-04 0.0000000000000000e+00  2.0728255656824489e-05 8.3500000000000002e-04 0.0000000000000000e+00  2.2958706615513385e-05 8.3500000000000002e-04 0.0000000000000000e+00  2.5222343816129192e-05 8.3500000000000002e-04 0.0000000000000000e+00  2.7521936469397619e-05 8.3500000000000002e-04 0.0000000000000000e+00  2.9859523554313344e-05 8.3500000000000002e-04 0.0000000000000000e+00  3.2239926604832564e-05 8.3500000000000002e-04 0.0000000000000000e+00  3.4660301495140895e-05 8.3500000000000002e-04 0.0000000000000000e+00  3.7130497380450911e-05 8.3500000000000002e-04 0.0000000000000000e+00  3.9649485604920674e-05 8.3500000000000002e-04 0.0000000000000000e+00  4.2205859039604804e-05 8.3500000000000002e-04 0.0000000000000000e+00  4.4817255082563458e-05 8.3500000000000002e-04 0.0000000000000000e+00  4.7477483326906770e-05 8.3500000000000002e-04 0.0000000000000000e+00  5.0182609503007610e-05 8.3500000000000002e-04 0.0000000000000000e+00  5.2933339891730236e-05 8.3500000000000002e-04 0.0000000000000000e+00  5.5722170161720109e-05 8.3500000000000002e-04 0.0000000000000000e+00  5.8571826034323481e-05 8.3500000000000002e-04 0.0000000000000000e+00  6.1423603521691455e-05 8.3500000000000002e-04 0.0000000000000000e+00  6.4307502418708206e-05 8.3500000000000002e-04 0.0000000000000000e+00  6.7212821835770274e-05 8.3500000000000002e-04 0.0000000000000000e+00  7.0132157891328090e-05 8.3500000000000002e-04 0.0000000000000000e+00  7.3023138176323365e-05 8.3500000000000002e-04 0.0000000000000000e+00  7.5900263165052902e-05 8.3500000000000002e-04 0.0000000000000000e+00  7.8732654236902654e-05 8.3500000000000002e-04 0.0000000000000000e+00  8.1507068903157001e-05 8.3500000000000002e-04 0.0000000000000000e+00  8.4209445845399099e-05 8.3500000000000002e-04 0.0000000000000000e+00  8.6762958318557885e-05 8.3500000000000002e-04 0.0000000000000000e+00  8.9176868363659463e-05 8.3500000000000002e-04 0.0000000000000000e+00  9.1388626540684975e-05 8.3500000000000002e-04 0.0000000000000000e+00  9.3463293786697331e-05 8.3500000000000002e-04 0.0000000000000000e+00  9.5264445710051753e-05 8.3500000000000002e-04 0.0000000000000000e+00  9.6770979467561795e-05 8.3500000000000002e-04 0.0000000000000000e+00  9.8007956950020973e-05 8.3500000000000002e-04 0.0000000000000000e+00  9.8847103958573884e-05 8.3500000000000002e-04 0.0000000000000000e+00  9.9421793728101849e-05 8.3500000000000002e-04 0.0000000000000000e+00  9.9573199837464939e-05 8.3500000000000002e-04 0.0000000000000000e+00  9.9224013219718259e-05 8.3500000000000002e-04 0.0000000000000000e+00  9.8389215316107618e-05 8.3500000000000002e-04 0.0000000000000000e+00  9.7136354723400460e-05 8.3500000000000002e-04 0.0000000000000000e+00  9.5379365368146460e-05 8.3500000000000002e-04 0.0000000000000000e+00  9.3124577916358877e-05 8.3500000000000002e-04 0.0000000000000000e+00  9.0425191278779724e-05 8.3500000000000002e-04 0.0000000000000000e+00  8.7231070633233344e-05 8.3500000000000002e-04 0.0000000000000000e+00  8.3765690076715628e-05 8.3500000000000002e-04 0.0000000000000000e+00  7.9734307631550123e-05 8.3500000000000002e-04 0.0000000000000000e+00  7.5344285832263026e-05 8.3500000000000002e-04 0.0000000000000000e+00  7.0617267638988464e-05 8.3500000000000002e-04 0.0000000000000000e+00  6.5570406675284848e-05 8.3500000000000002e-04 0.0000000000000000e+00  6.0292661321961993e-05 8.3500000000000002e-04 0.0000000000000000e+00  5.4732485493418732e-05 8.3500000000000002e-04 0.0000000000000000e+00  4.9026497077333262e-05 8.3500000000000002e-04 0.0000000000000000e+00  4.3127052284900248e-05 8.3500000000000002e-04 0.0000000000000000e+00  3.7127472936047792e-05 8.3500000000000002e-04 0.0000000000000000e+00  3.1046177247100610e-05 8.3500000000000002e-04 0.0000000000000000e+00  2.4912744560273897e-05 8.3500000000000002e-04 0.0000000000000000e+00  1.8718355583511548e-05 8.3500000000000002e-04 0.0000000000000000e+00  1.2529250624627127e-05 8.3500000000000002e-04 0.0000000000000000e+00  6.3348074127164163e-06 8.3500000000000002e-04 0.0000000000000000e+00  1.6149826306833942e-07 8.3500000000000002e-04 0.0000000000000000e+00  -5.9833753244018613e-06 8.3500000000000002e-04 0.0000000000000000e+00  -1.2090923623371862e-05 8.3500000000000002e-04 0.0000000000000000e+00  -1.8156740553981497e-05 8.3500000000000002e-04 0.0000000000000000e+00  -2.4175148989184371e-05 8.3500000000000002e-04 0.0000000000000000e+00  -3.0141362507747885e-05 8.3500000000000002e-04 0.0000000000000000e+00  -3.6068802288868465e-05 8.3500000000000002e-04 0.0000000000000000e+00  -4.1941297224260751e-05 8.3500000000000002e-04 0.0000000000000000e+00  -4.7761991266584535e-05 8.3500000000000002e-04 0.0000000000000000e+00  -5.3546957938899623e-05 8.3500000000000002e-04 0.0000000000000000e+00  -5.9282966485529655e-05 8.3500000000000002e-04 0.0000000000000000e+00  -6.4983917566489705e-05 8.3500000000000002e-04 0.0000000000000000e+00  -7.0648887042740102e-05 8.3500000000000002e-04 0.0000000000000000e+00  -7.6282992268936030e-05 8.3500000000000002e-04 0.0000000000000000e+00  -8.1889137390871549e-05 8.3500000000000002e-04 0.0000000000000000e+00  -8.7467902894576021e-05 8.3500000000000002e-04 0.0000000000000000e+00  -9.3028841481476300e-05 8.3500000000000002e-04 0.0000000000000000e+00  -9.8573914080059996e-05 8.3500000000000002e-04 0.0000000000000000e+00  -1.0410699698842935e-04 8.3500000000000002e-04 0.0000000000000000e+00  -1.0962990733537756e-04 8.3500000000000002e-04 0.0000000000000000e+00  -1.1514073851500613e-04 8.3500000000000002e-04 0.0000000000000000e+00  -1.2064965112071587e-04 8.3500000000000002e-04 0.0000000000000000e+00  -1.2615924452389401e-04 8.3500000000000002e-04 0.0000000000000000e+00  -1.3167324095904524e-04 8.3500000000000002e-04 0.0000000000000000e+00  -1.3717889781313550e-04 8.3500000000000002e-04 0.0000000000000000e+00  -1.4269510981688218e-04 8.3500000000000002e-04 0.0000000000000000e+00  -1.4822110424600701e-04 8.3500000000000002e-04 0.0000000000000000e+00  -1.5374405131652537e-04 8.3500000000000002e-04 0.0000000000000000e+00  -1.5927997020817700e-04 8.3500000000000002e-04 0.0000000000000000e+00  -1.6482631049035893e-04 8.3500000000000002e-04 0.0000000000000000e+00  -1.7038470302385442e-04 8.3500000000000002e-04 0.0000000000000000e+00  -1.7594885589511665e-04 8.3500000000000002e-04 0.0000000000000000e+00  -1.8151550175393857e-04 8.3500000000000002e-04 0.0000000000000000e+00  -1.8709278433359363e-04 8.3500000000000002e-04 0.0000000000000000e+00  -1.9268242212528780e-04 8.3500000000000002e-04 0.0000000000000000e+00  -1.9827405942621633e-04 8.3500000000000002e-04 0.0000000000000000e+00  -2.0386916488427870e-04 8.3500000000000002e-04 0.0000000000000000e+00  -2.0946738750042676e-04 8.3500000000000002e-04 0.0000000000000000e+00  -2.1507104935790023e-04 8.3500000000000002e-04 0.0000000000000000e+00  -2.2066705511519254e-04 8.3500000000000002e-04 0.0000000000000000e+00  -2.2626622392424943e-04 8.3500000000000002e-04 0.0000000000000000e+00  -2.3185030696267536e-04 8.3500000000000002e-04 0.0000000000000000e+00  -2.3743364730062668e-04 8.3500000000000002e-04 0.0000000000000000e+00  -2.4300699456431999e-04 8.3500000000000002e-04 0.0000000000000000e+00  -2.4855778106148431e-04 8.3500000000000002e-04 0.0000000000000000e+00  -2.5409347915153724e-04 8.3500000000000002e-04 0.0000000000000000e+00  -2.5961062441497721e-04 8.3500000000000002e-04 0.0000000000000000e+00  -2.6510190862865534e-04 8.3500000000000002e-04 0.0000000000000000e+00  -2.7056074846232444e-04 8.3500000000000002e-04 0.0000000000000000e+00  -2.7600343424851132e-04 8.3500000000000002e-04 0.0000000000000000e+00  -2.8140379088699847e-04 8.3500000000000002e-04 0.0000000000000000e+00  -2.8676524367946747e-04 8.3500000000000002e-04 0.0000000000000000e+00  -2.9208549897866175e-04 8.3500000000000002e-04 0.0000000000000000e+00  -2.9735613839682664e-04 8.3500000000000002e-04 0.0000000000000000e+00  -3.0258463138211098e-04 8.3500000000000002e-04 0.0000000000000000e+00  -3.0777103182859285e-04 8.3500000000000002e-04 0.0000000000000000e+00  -3.1288394021303966e-04 8.3500000000000002e-04 0.0000000000000000e+00  -3.1796274649789939e-04 8.3500000000000002e-04 0.0000000000000000e+00  -3.2291744038893272e-04 8.2000702052216403e-04 0.0000000000000000e+00  -3.2265186929331151e-04 8.0501171009815455e-04 0.0000000000000000e+00  -3.2227759276846793e-04 7.9001427438847181e-04 0.0000000000000000e+00  -3.2169772406024326e-04 7.7501467675122481e-04 0.0000000000000000e+00  -3.2097187868009795e-04 7.6003391831025598e-04 0.0000000000000000e+00  -3.2004796581693734e-04 7.4501895212774206e-04 0.0000000000000000e+00  -3.1897911276293804e-04 7.3003188616205792e-04 0.0000000000000000e+00  -3.1774678549301123e-04 7.1501959323974770e-04 0.0000000000000000e+00  -3.1632643217616402e-04 7.0000893679199067e-04 0.0000000000000000e+00  -3.1473021287282645e-04 6.8501774018013290e-04 0.0000000000000000e+00  -3.1295866735531690e-04 6.6999217992630986e-04 0.0000000000000000e+00  -3.1100409985325683e-04 6.5497303208964788e-04 0.0000000000000000e+00  -3.0887003600927232e-04 6.3993162270081034e-04 0.0000000000000000e+00  -3.0653578444700711e-04 6.2491811519179395e-04 0.0000000000000000e+00  -3.0402018402414006e-04 6.0985179298755248e-04 0.0000000000000000e+00  -3.0129695961700500e-04 5.9476445029782628e-04 0.0000000000000000e+00  -2.9836836998512194e-04 5.7969616189758300e-04 0.0000000000000000e+00  -2.9523230441238845e-04 5.6457650431024245e-04 0.0000000000000000e+00  -2.9187422647995184e-04 5.4947059588073162e-04 0.0000000000000000e+00  -2.8829569563062395e-04 5.3432592229572980e-04 0.0000000000000000e+00  -2.8449650435743160e-04 5.1911301965095098e-04 0.0000000000000000e+00  -2.8044802479655764e-04 5.0392857768515335e-04 0.0000000000000000e+00  -2.7616217815911419e-04 4.8865633207261319e-04 0.0000000000000000e+00  -2.7160738874863755e-04 4.7337366913586539e-04 0.0000000000000000e+00  -2.6681323227801553e-04 4.5800900792063604e-04 0.0000000000000000e+00  -2.6172139256210221e-04 4.4264010819171514e-04 0.0000000000000000e+00  -2.5637550673226366e-04 4.2713649407772789e-04 0.0000000000000000e+00  -