<?xml version="1.0"?>
<VTKFile type="UnstructuredGrid"  version="0.1"  >
<UnstructuredGrid>
<Piece  NumberOfPoints="16512" NumberOfCells="32424">
<Points>
<DataArray  type="Float64"  NumberOfComponents="3"  format="ascii">-25 4.9 0  25 4.9 0  25 -4.9 0  -25 -4.9 0  -10 0 0  10 0 0  -24.80000000000034 4.9 0  -24.60000000000068 4.9 0  -24.40000000000101 4.9 0  -24.20000000000135 4.9 0  -24.00000000000169 4.9 0  -23.80000000000203 4.9 0  -23.60000000000237 4.9 0  -23.40000000000271 4.9 0  -23.20000000000304 4.9 0  -23.00000000000338 4.9 0  -22.80000000000372 4.9 0  -22.60000000000406 4.9 0  -22.40000000000439 4.9 0  -22.20000000000473 4.9 0  -22.00000000000507 4.9 0  -21.80000000000541 4.9 0  -21.60000000000575 4.9 0  -21.40000000000608 4.9 0  -21.20000000000642 4.9 0  -21.00000000000676 4.9 0  -20.8000000000071 4.9 0  -20.60000000000744 4.9 0  -20.40000000000777 4.9 0  -20.20000000000811 4.9 0  -20.00000000000845 4.9 0  -19.80000000000879 4.9 0  -19.60000000000912 4.9 0  -19.40000000000946 4.9 0  -19.2000000000098 4.9 0  -19.00000000001039 4.9 0  -18.80000000001108 4.9 0  -18.60000000001231 4.9 0  -18.40000000001371 4.9 0  -18.2000000000154 4.9 0  -18.00000000001716 4.9 0  -17.80000000001892 4.9 0  -17.60000000002067 4.9 0  -17.40000000002243 4.9 0  -17.20000000002419 4.9 0  -17.00000000002595 4.9 0  -16.80000000002771 4.9 0  -16.60000000002947 4.9 0  -16.40000000003123 4.9 0  -16.20000000003299 4.9 0  -16.00000000003472 4.9 0  -15.80000000003612 4.9 0  -15.60000000003748 4.9 0  -15.40000000003853 4.9 0  -15.20000000003958 4.9 0  -15.00000000004063 4.9 0  -14.80000000004168 4.9 0  -14.60000000004273 4.9 0  -14.40000000004377 4.9 0  -14.20000000004482 4.9 0  -14.00000000004587 4.9 0  -13.80000000004692 4.9 0  -13.60000000004797 4.9 0  -13.40000000004902 4.9 0  -13.20000000005007 4.9 0  -13.00000000005111 4.9 0  -12.80000000005216 4.9 0  -12.60000000005321 4.9 0  -12.40000000005426 4.9 0  -12.20000000005531 4.9 0  -12.00000000005636 4.9 0  -11.80000000005741 4.9 0  -11.60000000005846 4.9 0  -11.4000000000595 4.9 0  -11.20000000006055 4.9 0  -11.0000000000616 4.9 0  -10.80000000006265 4.9 0  -10.6000000000637 4.9 0  -10.40000000006475 4.9 0  -10.2000000000658 4.9 0  -10.00000000006684 4.9 0  -9.800000000067891 4.9 0  -9.60000000006894 4.9 0  -9.400000000069989 4.9 0  -9.200000000070727 4.9 0  -9.00000000007142 4.9 0  -8.800000000071787 4.9 0  -8.600000000072125 4.9 0  -8.400000000072467 4.9 0  -8.200000000072805 4.9 0  -8.000000000073143 4.9 0  -7.800000000073481 4.9 0  -7.60000000007382 4.9 0  -7.400000000074154 4.9 0  -7.200000000074493 4.9 0  -7.000000000074831 4.9 0  -6.800000000075173 4.9 0  -6.600000000075511 4.9 0  -6.400000000075849 4.9 0  -6.200000000076187 4.9 0  -6.000000000076525 4.9 0  -5.800000000076867 4.9 0  -5.600000000077205 4.9 0  -5.400000000077544 4.9 0  -5.200000000077882 4.9 0  -5.00000000007822 4.9 0  -4.800000000078558 4.9 0  -4.600000000078897 4.9 0  -4.400000000079235 4.9 0  -4.200000000079573 4.9 0  -4.000000000079908 4.9 0  -3.800000000080246 4.9 0  -3.600000000080588 4.9 0  -3.400000000080926 4.9 0  -3.200000000081264 4.9 0  -3.000000000081606 4.9 0  -2.800000000081944 4.9 0  -2.600000000082282 4.9 0  -2.40000000008262 4.9 0  -2.200000000082959 4.9 0  -2.000000000083297 4.9 0  -1.800000000083635 4.9 0  -1.600000000083973 4.9 0  -1.400000000084312 4.9 0  -1.20000000008465 4.9 0  -1.000000000084988 4.9 0  -0.8000000000853262 4.9 0  -0.6000000000856645 4.9 0  -0.4000000000860027 4.9 0  -0.2000000000863409 4.9 0  -8.667910833537462e-11 4.9 0  0.1999999999129827 4.9 0  0.3999999999126409 4.9 0  0.5999999999123027 4.9 0  0.7999999999119716 4.9 0  0.9999999999116262 4.9 0  1.199999999911295 4.9 0  1.39999999991095 4.9 0  1.599999999910619 4.9 0  1.799999999910273 4.9 0  1.999999999909939 4.9 0  2.199999999909597 4.9 0  2.399999999909262 4.9 0  2.599999999908921 4.9 0  2.799999999908582 4.9 0  2.999999999908244 4.9 0  3.199999999907906 4.9 0  3.399999999907564 4.9 0  3.599999999907226 4.9 0  3.799999999906888 4.9 0  3.999999999906549 4.9 0  4.199999999906218 4.9 0  4.399999999905873 4.9 0  4.599999999905542 4.9 0  4.799999999905197 4.9 0  4.999999999904865 4.9 0  5.19999999990452 4.9 0  5.399999999904182 4.9 0  5.599999999903844 4.9 0  5.799999999903505 4.9 0  5.999999999903167 4.9 0  6.199999999902829 4.9 0  6.399999999902491 4.9 0  6.599999999902153 4.9 0  6.799999999902379 4.9 0  6.999999999902752 4.9 0  7.199999999903724 4.9 0  7.399999999904807 4.9 0  7.59999999990589 4.9 0  7.799999999906966 4.9 0  7.999999999908056 4.9 0  8.199999999909132 4.9 0  8.399999999910214 4.9 0  8.59999999991129 4.9 0  8.79999999991238 4.9 0  8.999999999913456 4.9 0  9.199999999914539 4.9 0  9.399999999915622 4.9 0  9.599999999916704 4.9 0  9.79999999991778 4.9 0  9.99999999991887 4.9 0  10.19999999991995 4.9 0  10.39999999992103 4.9 0  10.59999999992212 4.9 0  10.79999999992319 4.9 0  10.99999999992428 4.9 0  11.19999999992536 4.9 0  11.39999999992644 4.9 0  11.59999999992752 4.9 0  11.7999999999286 4.9 0  11.99999999992968 4.9 0  12.19999999993077 4.9 0  12.39999999993184 4.9 0  12.59999999993293 4.9 0  12.79999999993401 4.9 0  12.99999999993509 4.9 0  13.19999999993617 4.9 0  13.39999999993726 4.9 0  13.59999999993834 4.9 0  13.79999999993942 4.9 0  13.99999999994051 4.9 0  14.19999999994158 4.9 0  14.39999999994266 4.9 0  14.59999999994375 4.9 0  14.79999999994483 4.9 0  14.99999999994591 4.9 0  15.199999999947 4.9 0  15.39999999994807 4.9 0  15.59999999994915 4.9 0  15.79999999995024 4.9 0  15.99999999995132 4.9 0  16.1999999999524 4.9 0  16.39999999995349 4.9 0  16.59999999995456 4.9 0  16.79999999995565 4.9 0  16.99999999995674 4.9 0  17.19999999995781 4.9 0  17.39999999995889 4.9 0  17.59999999995997 4.9 0  17.79999999996106 4.9 0  17.99999999996214 4.9 0  18.19999999996322 4.9 0  18.3999999999643 4.9 0  18.59999999996538 4.9 0  18.79999999996646 4.9 0  18.99999999996755 4.9 0  19.19999999996863 4.9 0  19.39999999996971 4.9 0  19.59999999997079 4.9 0  19.79999999997187 4.9 0  19.99999999997296 4.9 0  20.19999999997404 4.9 0  20.39999999997512 4.9 0  20.5999999999762 4.9 0  20.79999999997728 4.9 0  20.99999999997836 4.9 0  21.19999999997945 4.9 0  21.39999999998052 4.9 0  21.59999999998161 4.9 0  21.79999999998269 4.9 0  21.99999999998377 4.9 0  22.19999999998485 4.9 0  22.39999999998594 4.9 0  22.59999999998701 4.9 0  22.7999999999881 4.9 0  22.99999999998919 4.9 0  23.19999999999026 4.9 0  23.39999999999135 4.9 0  23.59999999999243 4.9 0  23.79999999999351 4.9 0  23.99999999999459 4.9 0  24.19999999999568 4.9 0  24.39999999999675 4.9 0  24.59999999999783 4.9 0  24.79999999999892 4.9 0  25 4.700000000000415 0  25 4.500000000000868 0  25 4.300000000001562 0  25 4.100000000001831 0  25 3.900000000002072 0  25 3.700000000002459 0  25 3.500000000003038 0  25 3.300000000003653 0  25 3.100000000004294 0  25 2.900000000004838 0  25 2.700000000005293 0  25 2.500000000005957 0  25 2.300000000006508 0  25 2.100000000007153 0  25 1.900000000007722 0  25 1.700000000008417 0  25 1.500000000008938 0  25 1.30000000000963 0  25 1.100000000010154 0  25 0.9000000000108268 0  25 0.7000000000114559 0  25 0.5000000000119762 0  25 0.3000000000126564 0  25 0.1000000000131926 0  25 -0.09999999998679243 0  25 -0.2999999999874587 0  25 -0.4999999999878586 0  25 -0.6999999999884441 0  25 -0.899999999988804 0  25 -1.099999999989427 0  25 -1.299999999989749 0  25 -1.499999999990411 0  25 -1.69999999999073 0  25 -1.899999999991396 0  25 -2.099999999991715 0  25 -2.299999999992381 0  25 -2.499999999993047 0  25 -2.699999999993714 0  25 -2.899999999994227 0  25 -3.099999999994698 0  25 -3.299999999994673 0  25 -3.499999999995339 0  25 -3.699999999996004 0  25 -3.89999999999667 0  25 -4.099999999997335 0  25 -4.299999999998002 0  25 -4.499999999998668 0  25 -4.699999999999335 0  24.80000000000034 -4.9 0  24.60000000000068 -4.9 0  24.40000000000101 -4.9 0  24.20000000000135 -4.9 0  24.00000000000169 -4.9 0  23.80000000000203 -4.9 0  23.60000000000237 -4.9 0  23.40000000000271 -4.9 0  23.20000000000304 -4.9 0  23.00000000000338 -4.9 0  22.80000000000372 -4.9 0  22.60000000000406 -4.9 0  22.40000000000439 -4.9 0  22.20000000000473 -4.9 0  22.00000000000507 -4.9 0  21.80000000000541 -4.9 0  21.60000000000575 -4.9 0  21.40000000000608 -4.9 0  21.20000000000642 -4.9 0  21.00000000000676 -4.9 0  20.8000000000071 -4.9 0  20.60000000000744 -4.9 0  20.40000000000777 -4.9 0  20.20000000000811 -4.9 0  20.00000000000845 -4.9 0  19.80000000000879 -4.9 0  19.60000000000912 -4.9 0  19.40000000000946 -4.9 0  19.2000000000098 -4.9 0  19.00000000001039 -4.9 0  18.80000000001108 -4.9 0  18.60000000001231 -4.9 0  18.40000000001371 -4.9 0  18.2000000000154 -4.9 0  18.00000000001716 -4.9 0  17.80000000001892 -4.9 0  17.60000000002067 -4.9 0  17.40000000002243 -4.9 0  17.20000000002419 -4.9 0  17.00000000002595 -4.9 0  16.80000000002771 -4.9 0  16.60000000002947 -4.9 0  16.40000000003123 -4.9 0  16.20000000003299 -4.9 0  16.00000000003472 -4.9 0  15.80000000003612 -4.9 0  15.60000000003748 -4.9 0  15.40000000003853 -4.9 0  15.20000000003958 -4.9 0  15.00000000004063 -4.9 0  14.80000000004168 -4.9 0  14.60000000004273 -4.9 0  14.40000000004377 -4.9 0  14.20000000004482 -4.9 0  14.00000000004587 -4.9 0  13.80000000004692 -4.9 0  13.60000000004797 -4.9 0  13.40000000004902 -4.9 0  13.20000000005007 -4.9 0  13.00000000005111 -4.9 0  12.80000000005216 -4.9 0  12.60000000005321 -4.9 0  12.40000000005426 -4.9 0  12.20000000005531 -4.9 0  12.00000000005636 -4.9 0  11.80000000005741 -4.9 0  11.60000000005846 -4.9 0  11.4000000000595 -4.9 0  11.20000000006055 -4.9 0  11.0000000000616 -4.9 0  10.80000000006265 -4.9 0  10.6000000000637 -4.9 0  10.40000000006475 -4.9 0  10.2000000000658 -4.9 0  10.00000000006684 -4.9 0  9.800000000067891 -4.9 0  9.60000000006894 -4.9 0  9.400000000069989 -4.9 0  9.200000000070727 -4.9 0  9.00000000007142 -4.9 0  8.800000000071787 -4.9 0  8.600000000072125 -4.9 0  8.400000000072467 -4.9 0  8.200000000072805 -4.9 0  8.000000000073143 -4.9 
[...]
<PointData  Vectors="f_7"> 
<DataArray  type="Float64"  Name="f_7"  NumberOfComponents="3" format="ascii">2.3914974460958021e-04 5.9499999999999993e-04 0.0000000000000000e+00  -2.3915157640392443e-04 5.9499999999999993e-04 0.0000000000000000e+00  0.0000000000000000e+00 0.0000000000000000e+00 0.0000000000000000e+00  0.0000000000000000e+00 0.0000000000000000e+00 0.0000000000000000e+00  3.3727606892956968e-05 2.9952402316134970e-04 0.0000000000000000e+00  -3.3396803546935889e-05 2.9425271374195324e-04 0.0000000000000000e+00  2.3559180756003396e-04 5.9499999999999993e-04 0.0000000000000000e+00  2.3201051532642083e-04 5.9499999999999993e-04 0.0000000000000000e+00  2.2840931884235706e-04 5.9499999999999993e-04 0.0000000000000000e+00  2.2474068191414447e-04 5.9499999999999993e-04 0.0000000000000000e+00  2.2105579257425818e-04 5.9499999999999993e-04 0.0000000000000000e+00  2.1732116945142072e-04 5.9499999999999993e-04 0.0000000000000000e+00  2.1356479809011506e-04 5.9499999999999993e-04 0.0000000000000000e+00  2.0976694100662490e-04 5.9499999999999993e-04 0.0000000000000000e+00  2.0595907652920083e-04 5.9499999999999993e-04 0.0000000000000000e+00  2.0211568561133802e-04 5.9499999999999993e-04 0.0000000000000000e+00  1.9825192541577519e-04 5.9499999999999993e-04 0.0000000000000000e+00  1.9438517269236075e-04 5.9499999999999993e-04 0.0000000000000000e+00  1.9047700491704877e-04 5.9499999999999993e-04 0.0000000000000000e+00  1.8656985065041297e-04 5.9499999999999993e-04 0.0000000000000000e+00  1.8265696658613894e-04 5.9499999999999993e-04 0.0000000000000000e+00  1.7874073952437841e-04 5.9499999999999993e-04 0.0000000000000000e+00  1.7479657348816276e-04 5.9499999999999993e-04 0.0000000000000000e+00  1.7086157801708443e-04 5.9499999999999993e-04 0.0000000000000000e+00  1.6693431584822579e-04 5.9499999999999993e-04 0.0000000000000000e+00  1.6299056623386401e-04 5.9499999999999993e-04 0.0000000000000000e+00  1.5905618225547054e-04 5.9499999999999993e-04 0.0000000000000000e+00  1.5512819015834996e-04 5.9499999999999993e-04 0.0000000000000000e+00  1.5121192855846710e-04 5.9499999999999993e-04 0.0000000000000000e+00  1.4730954089711273e-04 5.9499999999999993e-04 0.0000000000000000e+00  1.4339477510323515e-04 5.9499999999999993e-04 0.0000000000000000e+00  1.3949786554765957e-04 5.9499999999999993e-04 0.0000000000000000e+00  1.3561733855840531e-04 5.9499999999999993e-04 0.0000000000000000e+00  1.3174506546162257e-04 5.9499999999999993e-04 0.0000000000000000e+00  1.2788583289332370e-04 5.9499999999999993e-04 0.0000000000000000e+00  1.2404108165678003e-04 5.9499999999999993e-04 0.0000000000000000e+00  1.2020513668880190e-04 5.9499999999999993e-04 0.0000000000000000e+00  1.1638287114225944e-04 5.9499999999999993e-04 0.0000000000000000e+00  1.1257470264713348e-04 5.9499999999999993e-04 0.0000000000000000e+00  1.0878234580282713e-04 5.9499999999999993e-04 0.0000000000000000e+00  1.0498948964136785e-04 5.9499999999999993e-04 0.0000000000000000e+00  1.0121316992317675e-04 5.9499999999999993e-04 0.0000000000000000e+00  9.7444030499930893e-05 5.9499999999999993e-04 0.0000000000000000e+00  9.3685828930863954e-05 5.9499999999999993e-04 0.0000000000000000e+00  8.9929134441279614e-05 5.9499999999999993e-04 0.0000000000000000e+00  8.6179732964854070e-05 5.9499999999999993e-04 0.0000000000000000e+00  8.2435303407052784e-05 5.9499999999999993e-04 0.0000000000000000e+00  7.8691667022619182e-05 5.9499999999999993e-04 0.0000000000000000e+00  7.4946739369228152e-05 5.9499999999999993e-04 0.0000000000000000e+00  7.1199145425418649e-05 5.9499999999999993e-04 0.0000000000000000e+00  6.7445897305515402e-05 5.9499999999999993e-04 0.0000000000000000e+00  6.3685889967452067e-05 5.9499999999999993e-04 0.0000000000000000e+00  5.9917914108679792e-05 5.9499999999999993e-04 0.0000000000000000e+00  5.6136820358366097e-05 5.9499999999999993e-04 0.0000000000000000e+00  5.2341219052935160e-05 5.9499999999999993e-04 0.0000000000000000e+00  4.8532684938081217e-05 5.9499999999999993e-04 0.0000000000000000e+00  4.4704945720374670e-05 5.9499999999999993e-04 0.0000000000000000e+00  4.0857954703872502e-05 5.9499999999999993e-04 0.0000000000000000e+00  3.6991173396509870e-05 5.9499999999999993e-04 0.0000000000000000e+00  3.3095730512769587e-05 5.9499999999999993e-04 0.0000000000000000e+00  2.9189570218973301e-05 5.9499999999999993e-04 0.0000000000000000e+00  2.5259317831837698e-05 5.9499999999999993e-04 0.0000000000000000e+00  2.1308957596882784e-05 5.9499999999999993e-04 0.0000000000000000e+00  1.7337696315974461e-05 5.9499999999999993e-04 0.0000000000000000e+00  1.3355341147281329e-05 5.9499999999999993e-04 0.0000000000000000e+00  9.3570321148944810e-06 5.9499999999999993e-04 0.0000000000000000e+00  5.3737931755453126e-06 5.9499999999999993e-04 0.0000000000000000e+00  1.3912451812948564e-06 5.9499999999999993e-04 0.0000000000000000e+00  -2.5760823342931830e-06 5.9499999999999993e-04 0.0000000000000000e+00  -6.5226259759218843e-06 5.9499999999999993e-04 0.0000000000000000e+00  -1.0434930120892479e-05 5.9499999999999993e-04 0.0000000000000000e+00  -1.4271739738884461e-05 5.9499999999999993e-04 0.0000000000000000e+00  -1.8033501021031674e-05 5.9499999999999993e-04 0.0000000000000000e+00  -2.1676008104128368e-05 5.9499999999999993e-04 0.0000000000000000e+00  -2.5228871851593223e-05 5.9499999999999993e-04 0.0000000000000000e+00  -2.8681278312376368e-05 5.9499999999999993e-04 0.0000000000000000e+00  -3.1960068187255842e-05 5.9499999999999993e-04 0.0000000000000000e+00  -3.5030168465599349e-05 5.9499999999999993e-04 0.0000000000000000e+00  -3.7912932543899210e-05 5.9499999999999993e-04 0.0000000000000000e+00  -4.0630549243701148e-05 5.9499999999999993e-04 0.0000000000000000e+00  -4.3065654853883951e-05 5.9499999999999993e-04 0.0000000000000000e+00  -4.5303948869787840e-05 5.9499999999999993e-04 0.0000000000000000e+00  -4.7289405802976123e-05 5.9499999999999993e-04 0.0000000000000000e+00  -4.8995819646726245e-05 5.9499999999999993e-04 0.0000000000000000e+00  -5.0459661107909870e-05 5.9499999999999993e-04 0.0000000000000000e+00  -5.1687799133314672e-05 5.9499999999999993e-04 0.0000000000000000e+00  -5.2659273639980675e-05 5.9499999999999993e-04 0.0000000000000000e+00  -5.3377537781877787e-05 5.9499999999999993e-04 0.0000000000000000e+00  -5.3848583390370968e-05 5.9499999999999993e-04 0.0000000000000000e+00  -5.4086294272742123e-05 5.9499999999999993e-04 0.0000000000000000e+00  -5.4135922424085007e-05 5.9499999999999993e-04 0.0000000000000000e+00  -5.3998170679569620e-05 5.9499999999999993e-04 0.0000000000000000e+00  -5.3648121700949291e-05 5.9499999999999993e-04 0.0000000000000000e+00  -5.3106278180177498e-05 5.9499999999999993e-04 0.0000000000000000e+00  -5.2436002416110434e-05 5.9499999999999993e-04 0.0000000000000000e+00  -5.1626807271419047e-05 5.9499999999999993e-04 0.0000000000000000e+00  -5.0688318696202397e-05 5.9499999999999993e-04 0.0000000000000000e+00  -4.9602668228559452e-05 5.9499999999999993e-04 0.0000000000000000e+00  -4.8426804023381639e-05 5.9499999999999993e-04 0.0000000000000000e+00  -4.7158738752044860e-05 5.9499999999999993e-04 0.0000000000000000e+00  -4.5819042033810158e-05 5.9499999999999993e-04 0.0000000000000000e+00  -4.4379068150738352e-05 5.9499999999999993e-04 0.0000000000000000e+00  -4.2899111391751716e-05 5.9499999999999993e-04 0.0000000000000000e+00  -4.1372719637004233e-05 5.9499999999999993e-04 0.0000000000000000e+00  -3.9796769128899096e-05 5.9499999999999993e-04 0.0000000000000000e+00  -3.8186443293837588e-05 5.9499999999999993e-04 0.0000000000000000e+00  -3.6557564035503290e-05 5.9499999999999993e-04 0.0000000000000000e+00  -3.4915524432558435e-05 5.9499999999999993e-04 0.0000000000000000e+00  -3.3240224937274814e-05 5.9499999999999993e-04 0.0000000000000000e+00  -3.1572805633294785e-05 5.9499999999999993e-04 0.0000000000000000e+00  -2.9906410378850999e-05 5.9499999999999993e-04 0.0000000000000000e+00  -2.8244832000476123e-05 5.9499999999999993e-04 0.0000000000000000e+00  -2.6596553987552854e-05 5.9499999999999993e-04 0.0000000000000000e+00  -2.4950514782484076e-05 5.9499999999999993e-04 0.0000000000000000e+00  -2.3323159328945352e-05 5.9499999999999993e-04 0.0000000000000000e+00  -2.1712747476256629e-05 5.9499999999999993e-04 0.0000000000000000e+00  -2.0119258924958885e-05 5.9499999999999993e-04 0.0000000000000000e+00  -1.8546812754287013e-05 5.9499999999999993e-04 0.0000000000000000e+00  -1.6983571407902091e-05 5.9499999999999993e-04 0.0000000000000000e+00  -1.5442460010792759e-05 5.9499999999999993e-04 0.0000000000000000e+00  -1.3919008988124757e-05 5.9499999999999993e-04 0.0000000000000000e+00  -1.2413817859644798e-05 5.9499999999999993e-04 0.0000000000000000e+00  -1.0924489617411382e-05 5.9499999999999993e-04 0.0000000000000000e+00  -9.4523890760299546e-06 5.9499999999999993e-04 0.0000000000000000e+00  -7.9957451813123305e-06 5.9499999999999993e-04 0.0000000000000000e+00  -6.5536447526702436e-06 5.9499999999999993e-04 0.0000000000000000e+00  -5.1258088587491014e-06 5.9499999999999993e-04 0.0000000000000000e+00  -3.7109547568990631e-06 5.9499999999999993e-04 0.0000000000000000e+00  -2.3087953053356851e-06 5.9499999999999993e-04 0.0000000000000000e+00  -9.1619684586196233e-07 5.9499999999999993e-04 0.0000000000000000e+00  4.6592647694064646e-07 5.9499999999999993e-04 0.0000000000000000e+00  1.8387573561671484e-06 5.9499999999999993e-04 0.0000000000000000e+00  3.2028794156274738e-06 5.9499999999999993e-04 0.0000000000000000e+00  4.5615574849012304e-06 5.9499999999999993e-04 0.0000000000000000e+00  5.9165109476783167e-06 5.9499999999999993e-04 0.0000000000000000e+00  7.2643434972910665e-06 5.9499999999999993e-04 0.0000000000000000e+00  8.6117214132382099e-06 5.9499999999999993e-04 0.0000000000000000e+00  9.9593060032584928e-06 5.9499999999999993e-04 0.0000000000000000e+00  1.1309449544173823e-05 5.9499999999999993e-04 0.0000000000000000e+00  1.2666427929058781e-05 5.9499999999999993e-04 0.0000000000000000e+00  1.4025365368005108e-05 5.9499999999999993e-04 0.0000000000000000e+00  1.5394980499314284e-05 5.9499999999999993e-04 0.0000000000000000e+00  1.6775577494114806e-05 5.9499999999999993e-04 0.0000000000000000e+00  1.8170531132854712e-05 5.9499999999999993e-04 0.0000000000000000e+00  1.9580026323553044e-05 5.9499999999999993e-04 0.0000000000000000e+00  2.1008367062619330e-05 5.9499999999999993e-04 0.0000000000000000e+00  2.2451462902851883e-05 5.9499999999999993e-04 0.0000000000000000e+00  2.3917779963786663e-05 5.9499999999999993e-04 0.0000000000000000e+00  2.5407769594877757e-05 5.9499999999999993e-04 0.0000000000000000e+00  2.6906705416807198e-05 5.9499999999999993e-04 0.0000000000000000e+00  2.8432145963092302e-05 5.9499999999999993e-04 0.0000000000000000e+00  2.9978558767608250e-05 5.9499999999999993e-04 0.0000000000000000e+00  3.1535452032863766e-05 5.9499999999999993e-04 0.0000000000000000e+00  3.3106232070319041e-05 5.9499999999999993e-04 0.0000000000000000e+00  3.4684868237707575e-05 5.9499999999999993e-04 0.0000000000000000e+00  3.6281143169036068e-05 5.9499999999999993e-04 0.0000000000000000e+00  3.7854983554262070e-05 5.9499999999999993e-04 0.0000000000000000e+00  3.9422674387471380e-05 5.9499999999999993e-04 0.0000000000000000e+00  4.0976567867503213e-05 5.9499999999999993e-04 0.0000000000000000e+00  4.2513984246528637e-05 5.9499999999999993e-04 0.0000000000000000e+00  4.3994088428655450e-05 5.9499999999999993e-04 0.0000000000000000e+00  4.5434815095564353e-05 5.9499999999999993e-04 0.0000000000000000e+00  4.6812312936350978e-05 5.9499999999999993e-04 0.0000000000000000e+00  4.8116243467849076e-05 5.9499999999999993e-04 0.0000000000000000e+00  4.9337906234016701e-05 5.9499999999999993e-04 0.0000000000000000e+00  5.0427613466677512e-05 5.9499999999999993e-04 0.0000000000000000e+00  5.1392313951618119e-05 5.9499999999999993e-04 0.0000000000000000e+00  5.2195004172054518e-05 5.9499999999999993e-04 0.0000000000000000e+00  5.2888406105587925e-05 5.9499999999999993e-04 0.0000000000000000e+00  5.3381076471871651e-05 5.9499999999999993e-04 0.0000000000000000e+00  5.3667202810044169e-05 5.9499999999999993e-04 0.0000000000000000e+00  5.3770539574003142e-05 5.9499999999999993e-04 0.0000000000000000e+00  5.3614880577491931e-05 5.9499999999999993e-04 0.0000000000000000e+00  5.3290448116339242e-05 5.9499999999999993e-04 0.0000000000000000e+00  5.2704262186444290e-05 5.9499999999999993e-04 0.0000000000000000e+00  5.1818280385770046e-05 5.9499999999999993e-04 0.0000000000000000e+00  5.0647418470587851e-05 5.9499999999999993e-04 0.0000000000000000e+00  4.9238220678472043e-05 5.9499999999999993e-04 0.0000000000000000e+00  4.7545919262979431e-05 5.9499999999999993e-04 0.0000000000000000e+00  4.5578682305225404e-05 5.9499999999999993e-04 0.0000000000000000e+00  4.3370750522658012e-05 5.9499999999999993e-04 0.0000000000000000e+00  4.0895495690137924e-05 5.9499999999999993e-04 0.0000000000000000e+00  3.8278941833324223e-05 5.9499999999999993e-04 0.0000000000000000e+00  3.5360481903690875e-05 5.9499999999999993e-04 0.0000000000000000e+00  3.2256571744710567e-05 5.9499999999999993e-04 0.0000000000000000e+00  2.8979366071504047e-05 5.9499999999999993e-04 0.0000000000000000e+00  2.5538720218608224e-05 5.9499999999999993e-04 0.0000000000000000e+00  2.1982205616881513e-05 5.9499999999999993e-04 0.0000000000000000e+00  1.8281769949720219e-05 5.9499999999999993e-04 0.0000000000000000e+00  1.4510267051191682e-05 5.9499999999999993e-04 0.0000000000000000e+00  1.0642738532388552e-05 5.9499999999999993e-04 0.0000000000000000e+00  6.7266043901844221e-06 5.9499999999999993e-04 0.0000000000000000e+00  2.7716005201516969e-06 5.9499999999999993e-04 0.0000000000000000e+00  -1.2076700950570931e-06 5.9499999999999993e-04 0.0000000000000000e+00  -5.2160122993601444e-06 5.9499999999999993e-04 0.0000000000000000e+00  -9.2199972722372006e-06 5.9499999999999993e-04 0.0000000000000000e+00  -1.3225404632477380e-05 5.9499999999999993e-04 0.0000000000000000e+00  -1.7219791163445012e-05 5.9499999999999993e-04 0.0000000000000000e+00  -2.1199593770292444e-05 5.9499999999999993e-04 0.0000000000000000e+00  -2.5161044490564246e-05 5.9499999999999993e-04 0.0000000000000000e+00  -2.9102381813050381e-05 5.9499999999999993e-04 0.0000000000000000e+00  -3.3021651815821540e-05 5.9499999999999993e-04 0.0000000000000000e+00  -3.6917080590818299e-05 5.9499999999999993e-04 0.0000000000000000e+00  -4.0794076171275094e-05 5.9499999999999993e-04 0.0000000000000000e+00  -4.4648356360743151e-05 5.9499999999999993e-04 0.0000000000000000e+00  -4.8481028705227078e-05 5.9499999999999993e-04 0.0000000000000000e+00  -5.2297822713061079e-05 5.9499999999999993e-04 0.0000000000000000e+00  -5.6095320603519092e-05 5.9499999999999993e-04 0.0000000000000000e+00  -5.9880531423237619e-05 5.9499999999999993e-04 0.0000000000000000e+00  -6.3653272383022247e-05 5.9499999999999993e-04 0.0000000000000000e+00  -6.7417014830318663e-05 5.9499999999999993e-04 0.0000000000000000e+00  -7.1173228683313555e-05 5.9499999999999993e-04 0.0000000000000000e+00  -7.4922249277268205e-05 5.9499999999999993e-04 0.0000000000000000e+00  -7.8669648731481269e-05 5.9499999999999993e-04 0.0000000000000000e+00  -8.2416945704293445e-05 5.9499999999999993e-04 0.0000000000000000e+00  -8.6166649091321153e-05 5.9499999999999993e-04 0.0000000000000000e+00  -8.9919073801345803e-05 5.9499999999999993e-04 0.0000000000000000e+00  -9.3671099824294574e-05 5.9499999999999993e-04 0.0000000000000000e+00  -9.7432206986630308e-05 5.9499999999999993e-04 0.0000000000000000e+00  -1.0120240200675620e-04 5.9499999999999993e-04 0.0000000000000000e+00  -1.0498481276560021e-04 5.9499999999999993e-04 0.0000000000000000e+00  -1.0876754533921570e-04 5.9499999999999993e-04 0.0000000000000000e+00  -1.1256662605861815e-04 5.9499999999999993e-04 0.0000000000000000e+00  -1.1638084258775663e-04 5.9499999999999993e-04 0.0000000000000000e+00  -1.2019899956527284e-04 5.9499999999999993e-04 0.0000000000000000e+00  -1.2403338751426578e-04 5.9499999999999993e-04 0.0000000000000000e+00  -1.2788149967381937e-04 5.9499999999999993e-04 0.0000000000000000e+00  -1.3174437978775741e-04 5.9499999999999993e-04 0.0000000000000000e+00  -1.3561714709075043e-04 5.9499999999999993e-04 0.0000000000000000e+00  -1.3949746015036590e-04 5.9499999999999993e-04 0.0000000000000000e+00  -1.4339035219204565e-04 5.9499999999999993e-04 0.0000000000000000e+00  -1.4729715986834887e-04 5.9499999999999993e-04 0.0000000000000000e+00  -1.5121040287325544e-04 5.9499999999999993e-04 0.0000000000000000e+00  -1.5513048361562171e-04 5.9499999999999993e-04 0.0000000000000000e+00  -1.5905724377106967e-04 5.9499999999999993e-04 0.0000000000000000e+00  -1.6299178518815652e-04 5.9499999999999993e-04 0.0000000000000000e+00  -1.6692450817999127e-04 5.9499999999999993e-04 0.0000000000000000e+00  -1.7086340544588023e-04 5.9499999999999993e-04 0.0000000000000000e+00  -1.7479417949788987e-04 5.9499999999999993e-04 0.0000000000000000e+00  -1.7872787893339265e-04 5.9499999999999993e-04 0.0000000000000000e+00  -1.8265727495908973e-04 5.9499999999999993e-04 0.0000000000000000e+00  -1.8657283287429042e-04 5.9499999999999993e-04 0.0000000000000000e+00  -1.9047989874051183e-04 5.9499999999999993e-04 0.0000000000000000e+00  -1.9437566590311183e-04 5.9499999999999993e-04 0.0000000000000000e+00  -1.9825455464913915e-04 5.9499999999999993e-04 0.0000000000000000e+00  -2.0211148942696105e-04 5.9499999999999993e-04 0.0000000000000000e+00  -2.0595835517301988e-04 5.9499999999999993e-04 0.0000000000000000e+00  -2.0977541784252714e-04 5.9499999999999993e-04 0.0000000000000000e+00  -2.1356495869978215e-04 5.9499999999999993e-04 0.0000000000000000e+00  -2.1732502920490616e-04 5.9499999999999993e-04 0.0000000000000000e+00  -2.2104893843641102e-04 5.9499999999999993e-04 0.0000000000000000e+00  -2.2474206974724975e-04 5.9499999999999993e-04 0.0000000000000000e+00  -2.2840431976814456e-04 5.9499999999999993e-04 0.0000000000000000e+00  -2.3201098566766857e-04 5.9499999999999993e-04 0.0000000000000000e+00  -2.3559205988885192e-04 5.9499999999999993e-04 0.0000000000000000e+00  -2.3907764405030164e-04 5.8444305629248351e-04 0.0000000000000000e+00  -2.3887233813543746e-04 5.7388392694131534e-04 0.0000000000000000e+00  -2.3858286421237759e-04 5.6332256252892318e-04 0.0000000000000000e+00  -2.3813481016300451e-04 5.5275868947055192e-04 0.0000000000000000e+00  -2.3757418185009106e-04 5.4220799148669283e-04 0.0000000000000000e+00  -2.3686077409585624e-04 5.3162971215655003e-04 0.0000000000000000e+00  -2.3603584523848093e-04 5.2107111536185203e-04 0.0000000000000000e+00  -2.3508551790979483e-04 5.1049100066302580e-04 0.0000000000000000e+00  -2.3399107807396875e-04 4.9990987358319015e-04 0.0000000000000000e+00  -2.3276149911289506e-04 4.8934098850359029e-04 0.0000000000000000e+00  -2.3139894697335814e-04 4.7874303352005853e-04 0.0000000000000000e+00  -2.2989610244624910e-04 4.6814699408073896e-04 0.0000000000000000e+00  -2.2825783422981852e-04 4.5753074424078368e-04 0.0000000000000000e+00  -2.2646715989722824e-04 4.4693198387716959e-04 0.0000000000000000e+00  -2.2453978002382502e-04 4.3628984441913143e-04 0.0000000000000000e+00  -2.2245625248775930e-04 4.2562798709022020e-04 0.0000000000000000e+00  -2.2021761478300612e-04 4.1497623300100689e-04 0.0000000000000000e+00  -2.1782463591996391e-04 4.0428171470831075e-04 0.0000000000000000e+00  -2.1526463369552561e-04 3.9359303252570215e-04 0.0000000000000000e+00  -2.1254038944846709e-04 3.8287044872991211e-04 0.0000000000000000e+00  -2.0965334956330497e-04 3.7209251775618886e-04 0.0000000000000000e+00  -2.0657994010707986e-04 3.6133073254407378e-04 0.0000000000000000e+00  -2.0333264166578628e-04 3.5049896153298385e-04 0.0000000000000000e+00  -1.9988497312394658e-04 3.3965433201818161e-04 0.0000000000000000e+00  -1.9626315463793488e-04 3.2874384887417044e-04 0.0000000000000000e+00  -1.9242117758125579e-04 3.1782445649590349e-04 0.0000000000000000e+00  -1.8839533965891826e-04 3.0680042156616856e-04 0.0000000000000000e+00  -