<?xml version="1.0"?>
<VTKFile type="UnstructuredGrid"  version="0.1"  >
<UnstructuredGrid>
<Piece  NumberOfPoints="16512" NumberOfCells="32424">
<Points>
<DataArray  type="Float64"  NumberOfComponents="3"  format="ascii">-25 4.9 0  25 4.9 0  25 -4.9 0  -25 -4.9 0  -10 0 0  10 0 0  -24.80000000000034 4.9 0  -24.60000000000068 4.9 0  -24.40000000000101 4.9 0  -24.20000000000135 4.9 0  -24.00000000000169 4.9 0  -23.80000000000203 4.9 0  -23.60000000000237 4.9 0  -23.40000000000271 4.9 0  -23.20000000000304 4.9 0  -23.00000000000338 4.9 0  -22.80000000000372 4.9 0  -22.60000000000406 4.9 0  -22.40000000000439 4.9 0  -22.20000000000473 4.9 0  -22.00000000000507 4.9 0  -21.80000000000541 4.9 0  -21.60000000000575 4.9 0  -21.40000000000608 4.9 0  -21.20000000000642 4.9 0  -21.00000000000676 4.9 0  -20.8000000000071 4.9 0  -20.60000000000744 4.9 0  -20.40000000000777 4.9 0  -20.20000000000811 4.9 0  -20.00000000000845 4.9 0  -19.80000000000879 4.9 0  -19.60000000000912 4.9 0  -19.40000000000946 4.9 0  -19.2000000000098 4.9 0  -19.00000000001039 4.9 0  -18.80000000001108 4.9 0  -18.60000000001231 4.9 0  -18.40000000001371 4.9 0  -18.2000000000154 4.9 0  -18.00000000001716 4.9 0  -17.80000000001892 4.9 0  -17.60000000002067 4.9 0  -17.40000000002243 4.9 0  -17.20000000002419 4.9 0  -17.00000000002595 4.9 0  -16.80000000002771 4.9 0  -16.60000000002947 4.9 0  -16.40000000003123 4.9 0  -16.20000000003299 4.9 0  -16.00000000003472 4.9 0  -15.80000000003612 4.9 0  -15.60000000003748 4.9 0  -15.40000000003853 4.9 0  -15.20000000003958 4.9 0  -15.00000000004063 4.9 0  -14.80000000004168 4.9 0  -14.60000000004273 4.9 0  -14.40000000004377 4.9 0  -14.20000000004482 4.9 0  -14.00000000004587 4.9 0  -13.80000000004692 4.9 0  -13.60000000004797 4.9 0  -13.40000000004902 4.9 0  -13.20000000005007 4.9 0  -13.00000000005111 4.9 0  -12.80000000005216 4.9 0  -12.60000000005321 4.9 0  -12.40000000005426 4.9 0  -12.20000000005531 4.9 0  -12.00000000005636 4.9 0  -11.80000000005741 4.9 0  -11.60000000005846 4.9 0  -11.4000000000595 4.9 0  -11.20000000006055 4.9 0  -11.0000000000616 4.9 0  -10.80000000006265 4.9 0  -10.6000000000637 4.9 0  -10.40000000006475 4.9 0  -10.2000000000658 4.9 0  -10.00000000006684 4.9 0  -9.800000000067891 4.9 0  -9.60000000006894 4.9 0  -9.400000000069989 4.9 0  -9.200000000070727 4.9 0  -9.00000000007142 4.9 0  -8.800000000071787 4.9 0  -8.600000000072125 4.9 0  -8.400000000072467 4.9 0  -8.200000000072805 4.9 0  -8.000000000073143 4.9 0  -7.800000000073481 4.9 0  -7.60000000007382 4.9 0  -7.400000000074154 4.9 0  -7.200000000074493 4.9 0  -7.000000000074831 4.9 0  -6.800000000075173 4.9 0  -6.600000000075511 4.9 0  -6.400000000075849 4.9 0  -6.200000000076187 4.9 0  -6.000000000076525 4.9 0  -5.800000000076867 4.9 0  -5.600000000077205 4.9 0  -5.400000000077544 4.9 0  -5.200000000077882 4.9 0  -5.00000000007822 4.9 0  -4.800000000078558 4.9 0  -4.600000000078897 4.9 0  -4.400000000079235 4.9 0  -4.200000000079573 4.9 0  -4.000000000079908 4.9 0  -3.800000000080246 4.9 0  -3.600000000080588 4.9 0  -3.400000000080926 4.9 0  -3.200000000081264 4.9 0  -3.000000000081606 4.9 0  -2.800000000081944 4.9 0  -2.600000000082282 4.9 0  -2.40000000008262 4.9 0  -2.200000000082959 4.9 0  -2.000000000083297 4.9 0  -1.800000000083635 4.9 0  -1.600000000083973 4.9 0  -1.400000000084312 4.9 0  -1.20000000008465 4.9 0  -1.000000000084988 4.9 0  -0.8000000000853262 4.9 0  -0.6000000000856645 4.9 0  -0.4000000000860027 4.9 0  -0.2000000000863409 4.9 0  -8.667910833537462e-11 4.9 0  0.1999999999129827 4.9 0  0.3999999999126409 4.9 0  0.5999999999123027 4.9 0  0.7999999999119716 4.9 0  0.9999999999116262 4.9 0  1.199999999911295 4.9 0  1.39999999991095 4.9 0  1.599999999910619 4.9 0  1.799999999910273 4.9 0  1.999999999909939 4.9 0  2.199999999909597 4.9 0  2.399999999909262 4.9 0  2.599999999908921 4.9 0  2.799999999908582 4.9 0  2.999999999908244 4.9 0  3.199999999907906 4.9 0  3.399999999907564 4.9 0  3.599999999907226 4.9 0  3.799999999906888 4.9 0  3.999999999906549 4.9 0  4.199999999906218 4.9 0  4.399999999905873 4.9 0  4.599999999905542 4.9 0  4.799999999905197 4.9 0  4.999999999904865 4.9 0  5.19999999990452 4.9 0  5.399999999904182 4.9 0  5.599999999903844 4.9 0  5.799999999903505 4.9 0  5.999999999903167 4.9 0  6.199999999902829 4.9 0  6.399999999902491 4.9 0  6.599999999902153 4.9 0  6.799999999902379 4.9 0  6.999999999902752 4.9 0  7.199999999903724 4.9 0  7.399999999904807 4.9 0  7.59999999990589 4.9 0  7.799999999906966 4.9 0  7.999999999908056 4.9 0  8.199999999909132 4.9 0  8.399999999910214 4.9 0  8.59999999991129 4.9 0  8.79999999991238 4.9 0  8.999999999913456 4.9 0  9.199999999914539 4.9 0  9.399999999915622 4.9 0  9.599999999916704 4.9 0  9.79999999991778 4.9 0  9.99999999991887 4.9 0  10.19999999991995 4.9 0  10.39999999992103 4.9 0  10.59999999992212 4.9 0  10.79999999992319 4.9 0  10.99999999992428 4.9 0  11.19999999992536 4.9 0  11.39999999992644 4.9 0  11.59999999992752 4.9 0  11.7999999999286 4.9 0  11.99999999992968 4.9 0  12.19999999993077 4.9 0  12.39999999993184 4.9 0  12.59999999993293 4.9 0  12.79999999993401 4.9 0  12.99999999993509 4.9 0  13.19999999993617 4.9 0  13.39999999993726 4.9 0  13.59999999993834 4.9 0  13.79999999993942 4.9 0  13.99999999994051 4.9 0  14.19999999994158 4.9 0  14.39999999994266 4.9 0  14.59999999994375 4.9 0  14.79999999994483 4.9 0  14.99999999994591 4.9 0  15.199999999947 4.9 0  15.39999999994807 4.9 0  15.59999999994915 4.9 0  15.79999999995024 4.9 0  15.99999999995132 4.9 0  16.1999999999524 4.9 0  16.39999999995349 4.9 0  16.59999999995456 4.9 0  16.79999999995565 4.9 0  16.99999999995674 4.9 0  17.19999999995781 4.9 0  17.39999999995889 4.9 0  17.59999999995997 4.9 0  17.79999999996106 4.9 0  17.99999999996214 4.9 0  18.19999999996322 4.9 0  18.3999999999643 4.9 0  18.59999999996538 4.9 0  18.79999999996646 4.9 0  18.99999999996755 4.9 0  19.19999999996863 4.9 0  19.39999999996971 4.9 0  19.59999999997079 4.9 0  19.79999999997187 4.9 0  19.99999999997296 4.9 0  20.19999999997404 4.9 0  20.39999999997512 4.9 0  20.5999999999762 4.9 0  20.79999999997728 4.9 0  20.99999999997836 4.9 0  21.19999999997945 4.9 0  21.39999999998052 4.9 0  21.59999999998161 4.9 0  21.79999999998269 4.9 0  21.99999999998377 4.9 0  22.19999999998485 4.9 0  22.39999999998594 4.9 0  22.59999999998701 4.9 0  22.7999999999881 4.9 0  22.99999999998919 4.9 0  23.19999999999026 4.9 0  23.39999999999135 4.9 0  23.59999999999243 4.9 0  23.79999999999351 4.9 0  23.99999999999459 4.9 0  24.19999999999568 4.9 0  24.39999999999675 4.9 0  24.59999999999783 4.9 0  24.79999999999892 4.9 0  25 4.700000000000415 0  25 4.500000000000868 0  25 4.300000000001562 0  25 4.100000000001831 0  25 3.900000000002072 0  25 3.700000000002459 0  25 3.500000000003038 0  25 3.300000000003653 0  25 3.100000000004294 0  25 2.900000000004838 0  25 2.700000000005293 0  25 2.500000000005957 0  25 2.300000000006508 0  25 2.100000000007153 0  25 1.900000000007722 0  25 1.700000000008417 0  25 1.500000000008938 0  25 1.30000000000963 0  25 1.100000000010154 0  25 0.9000000000108268 0  25 0.7000000000114559 0  25 0.5000000000119762 0  25 0.3000000000126564 0  25 0.1000000000131926 0  25 -0.09999999998679243 0  25 -0.2999999999874587 0  25 -0.4999999999878586 0  25 -0.6999999999884441 0  25 -0.899999999988804 0  25 -1.099999999989427 0  25 -1.299999999989749 0  25 -1.499999999990411 0  25 -1.69999999999073 0  25 -1.899999999991396 0  25 -2.099999999991715 0  25 -2.299999999992381 0  25 -2.499999999993047 0  25 -2.699999999993714 0  25 -2.899999999994227 0  25 -3.099999999994698 0  25 -3.299999999994673 0  25 -3.499999999995339 0  25 -3.699999999996004 0  25 -3.89999999999667 0  25 -4.099999999997335 0  25 -4.299999999998002 0  25 -4.499999999998668 0  25 -4.699999999999335 0  24.80000000000034 -4.9 0  24.60000000000068 -4.9 0  24.40000000000101 -4.9 0  24.20000000000135 -4.9 0  24.00000000000169 -4.9 0  23.80000000000203 -4.9 0  23.60000000000237 -4.9 0  23.40000000000271 -4.9 0  23.20000000000304 -4.9 0  23.00000000000338 -4.9 0  22.80000000000372 -4.9 0  22.60000000000406 -4.9 0  22.40000000000439 -4.9 0  22.20000000000473 -4.9 0  22.00000000000507 -4.9 0  21.80000000000541 -4.9 0  21.60000000000575 -4.9 0  21.40000000000608 -4.9 0  21.20000000000642 -4.9 0  21.00000000000676 -4.9 0  20.8000000000071 -4.9 0  20.60000000000744 -4.9 0  20.40000000000777 -4.9 0  20.20000000000811 -4.9 0  20.00000000000845 -4.9 0  19.80000000000879 -4.9 0  19.60000000000912 -4.9 0  19.40000000000946 -4.9 0  19.2000000000098 -4.9 0  19.00000000001039 -4.9 0  18.80000000001108 -4.9 0  18.60000000001231 -4.9 0  18.40000000001371 -4.9 0  18.2000000000154 -4.9 0  18.00000000001716 -4.9 0  17.80000000001892 -4.9 0  17.60000000002067 -4.9 0  17.40000000002243 -4.9 0  17.20000000002419 -4.9 0  17.00000000002595 -4.9 0  16.80000000002771 -4.9 0  16.60000000002947 -4.9 0  16.40000000003123 -4.9 0  16.20000000003299 -4.9 0  16.00000000003472 -4.9 0  15.80000000003612 -4.9 0  15.60000000003748 -4.9 0  15.40000000003853 -4.9 0  15.20000000003958 -4.9 0  15.00000000004063 -4.9 0  14.80000000004168 -4.9 0  14.60000000004273 -4.9 0  14.40000000004377 -4.9 0  14.20000000004482 -4.9 0  14.00000000004587 -4.9 0  13.80000000004692 -4.9 0  13.60000000004797 -4.9 0  13.40000000004902 -4.9 0  13.20000000005007 -4.9 0  13.00000000005111 -4.9 0  12.80000000005216 -4.9 0  12.60000000005321 -4.9 0  12.40000000005426 -4.9 0  12.20000000005531 -4.9 0  12.00000000005636 -4.9 0  11.80000000005741 -4.9 0  11.60000000005846 -4.9 0  11.4000000000595 -4.9 0  11.20000000006055 -4.9 0  11.0000000000616 -4.9 0  10.80000000006265 -4.9 0  10.6000000000637 -4.9 0  10.40000000006475 -4.9 0  10.2000000000658 -4.9 0  10.00000000006684 -4.9 0  9.800000000067891 -4.9 0  9.60000000006894 -4.9 0  9.400000000069989 -4.9 0  9.200000000070727 -4.9 0  9.00000000007142 -4.9 0  8.800000000071787 -4.9 0  8.600000000072125 -4.9 0  8.400000000072467 -4.9 0  8.200000000072805 -4.9 0  8.000000000073143 -4.9 
[...]
<PointData  Vectors="f_7"> 
<DataArray  type="Float64"  Name="f_7"  NumberOfComponents="3" format="ascii">1.9190002649926765e-04 4.5000000000000004e-04 0.0000000000000000e+00  -1.9207503432521202e-04 4.5000000000000004e-04 0.0000000000000000e+00  0.0000000000000000e+00 0.0000000000000000e+00 0.0000000000000000e+00  0.0000000000000000e+00 0.0000000000000000e+00 0.0000000000000000e+00  3.3853483601541871e-05 2.2558644618335581e-04 0.0000000000000000e+00  -3.3144028712032961e-05 2.2177425024201954e-04 0.0000000000000000e+00  1.8925620588926856e-04 4.5000000000000004e-04 0.0000000000000000e+00  1.8659310341464618e-04 4.5000000000000004e-04 0.0000000000000000e+00  1.8391371969456158e-04 4.5000000000000004e-04 0.0000000000000000e+00  1.8117854277072831e-04 4.5000000000000004e-04 0.0000000000000000e+00  1.7843109109484090e-04 4.5000000000000004e-04 0.0000000000000000e+00  1.7564327061664231e-04 4.5000000000000004e-04 0.0000000000000000e+00  1.7283913233966011e-04 4.5000000000000004e-04 0.0000000000000000e+00  1.7000248825158330e-04 4.5000000000000004e-04 0.0000000000000000e+00  1.6715939113402331e-04 4.5000000000000004e-04 0.0000000000000000e+00  1.6428923711307369e-04 4.5000000000000004e-04 0.0000000000000000e+00  1.6140472854375012e-04 4.5000000000000004e-04 0.0000000000000000e+00  1.5852016505477518e-04 4.5000000000000004e-04 0.0000000000000000e+00  1.5560418926658415e-04 4.5000000000000004e-04 0.0000000000000000e+00  1.5269189660223367e-04 4.5000000000000004e-04 0.0000000000000000e+00  1.4977764621470135e-04 4.5000000000000004e-04 0.0000000000000000e+00  1.4686380537302587e-04 4.5000000000000004e-04 0.0000000000000000e+00  1.4393012995911464e-04 4.5000000000000004e-04 0.0000000000000000e+00  1.4100773593419500e-04 4.5000000000000004e-04 0.0000000000000000e+00  1.3809468237367380e-04 4.5000000000000004e-04 0.0000000000000000e+00  1.3517188282421969e-04 4.5000000000000004e-04 0.0000000000000000e+00  1.3226079110359703e-04 4.5000000000000004e-04 0.0000000000000000e+00  1.2935876074869482e-04 4.5000000000000004e-04 0.0000000000000000e+00  1.2647058137687074e-04 4.5000000000000004e-04 0.0000000000000000e+00  1.2359782820090180e-04 4.5000000000000004e-04 0.0000000000000000e+00  1.2071869006443106e-04 4.5000000000000004e-04 0.0000000000000000e+00  1.1785930222741089e-04 4.5000000000000004e-04 0.0000000000000000e+00  1.1501799600024056e-04 4.5000000000000004e-04 0.0000000000000000e+00  1.1218821904756705e-04 4.5000000000000004e-04 0.0000000000000000e+00  1.0937409796579139e-04 4.5000000000000004e-04 0.0000000000000000e+00  1.0657732736766528e-04 4.5000000000000004e-04 0.0000000000000000e+00  1.0379330156554920e-04 4.5000000000000004e-04 0.0000000000000000e+00  1.0102639905933701e-04 4.5000000000000004e-04 0.0000000000000000e+00  9.8276604896052917e-05 4.5000000000000004e-04 0.0000000000000000e+00  9.5546610401181541e-05 4.5000000000000004e-04 0.0000000000000000e+00  9.2821484168987845e-05 4.5000000000000004e-04 0.0000000000000000e+00  9.0117671622855466e-05 4.5000000000000004e-04 0.0000000000000000e+00  8.7426857746301205e-05 4.5000000000000004e-04 0.0000000000000000e+00  8.4753276932923011e-05 4.5000000000000004e-04 0.0000000000000000e+00  8.2087630707202341e-05 4.5000000000000004e-04 0.0000000000000000e+00  7.9436632216046174e-05 4.5000000000000004e-04 0.0000000000000000e+00  7.6798732043038931e-05 4.5000000000000004e-04 0.0000000000000000e+00  7.4170712285230041e-05 4.5000000000000004e-04 0.0000000000000000e+00  7.1551302623954887e-05 4.5000000000000004e-04 0.0000000000000000e+00  6.8939561195620653e-05 4.5000000000000004e-04 0.0000000000000000e+00  6.6333618611444042e-05 4.5000000000000004e-04 0.0000000000000000e+00  6.3733386948807937e-05 4.5000000000000004e-04 0.0000000000000000e+00  6.1137568044732272e-05 4.5000000000000004e-04 0.0000000000000000e+00  5.8543900849319496e-05 4.5000000000000004e-04 0.0000000000000000e+00  5.5951746376341801e-05 4.5000000000000004e-04 0.0000000000000000e+00  5.3360792572474133e-05 4.5000000000000004e-04 0.0000000000000000e+00  5.0768261530689228e-05 4.5000000000000004e-04 0.0000000000000000e+00  4.8172992267533201e-05 4.5000000000000004e-04 0.0000000000000000e+00  4.5576274874864256e-05 4.5000000000000004e-04 0.0000000000000000e+00  4.2974484625732223e-05 4.5000000000000004e-04 0.0000000000000000e+00  4.0373140807672909e-05 4.5000000000000004e-04 0.0000000000000000e+00  3.7768705893432894e-05 4.5000000000000004e-04 0.0000000000000000e+00  3.5162438644980554e-05 4.5000000000000004e-04 0.0000000000000000e+00  3.2555385590403115e-05 4.5000000000000004e-04 0.0000000000000000e+00  2.9952674788016636e-05 4.5000000000000004e-04 0.0000000000000000e+00  2.7353475692996679e-05 4.5000000000000004e-04 0.0000000000000000e+00  2.4773667655176664e-05 4.5000000000000004e-04 0.0000000000000000e+00  2.2207472147378715e-05 4.5000000000000004e-04 0.0000000000000000e+00  1.9663790382358156e-05 4.5000000000000004e-04 0.0000000000000000e+00  1.7146640928206502e-05 4.5000000000000004e-04 0.0000000000000000e+00  1.4667181000642373e-05 4.5000000000000004e-04 0.0000000000000000e+00  1.2245041022597392e-05 4.5000000000000004e-04 0.0000000000000000e+00  9.8852051982036922e-06 4.5000000000000004e-04 0.0000000000000000e+00  7.6147411658596582e-06 4.5000000000000004e-04 0.0000000000000000e+00  5.4152914886830110e-06 4.5000000000000004e-04 0.0000000000000000e+00  3.2926536083937578e-06 4.5000000000000004e-04 0.0000000000000000e+00  1.2924984003457921e-06 4.5000000000000004e-04 0.0000000000000000e+00  -5.6406546528068502e-07 4.5000000000000004e-04 0.0000000000000000e+00  -2.2914928822531801e-06 4.5000000000000004e-04 0.0000000000000000e+00  -3.9034304966331845e-06 4.5000000000000004e-04 0.0000000000000000e+00  -5.3342942021029694e-06 4.5000000000000004e-04 0.0000000000000000e+00  -6.6338004676712923e-06 4.5000000000000004e-04 0.0000000000000000e+00  -7.7701711686252875e-06 4.5000000000000004e-04 0.0000000000000000e+00  -8.7327921031070983e-06 4.5000000000000004e-04 0.0000000000000000e+00  -9.5459365884313673e-06 4.5000000000000004e-04 0.0000000000000000e+00  -1.0216863183903229e-05 4.5000000000000004e-04 0.0000000000000000e+00  -1.0737481370035777e-05 4.5000000000000004e-04 0.0000000000000000e+00  -1.1114032751309195e-05 4.5000000000000004e-04 0.0000000000000000e+00  -1.1354425861986664e-05 4.5000000000000004e-04 0.0000000000000000e+00  -1.1472498398760325e-05 4.5000000000000004e-04 0.0000000000000000e+00  -1.1494565102749595e-05 4.5000000000000004e-04 0.0000000000000000e+00  -1.1426020211855746e-05 4.5000000000000004e-04 0.0000000000000000e+00  -1.1260558867517137e-05 4.5000000000000004e-04 0.0000000000000000e+00  -1.1015161491966882e-05 4.5000000000000004e-04 0.0000000000000000e+00  -1.0721088351016342e-05 4.5000000000000004e-04 0.0000000000000000e+00  -1.0377155908369068e-05 4.5000000000000004e-04 0.0000000000000000e+00  -9.9935600238955542e-06 4.5000000000000004e-04 0.0000000000000000e+00  -9.5667827717852342e-06 4.5000000000000004e-04 0.0000000000000000e+00  -9.1225109139897855e-06 4.5000000000000004e-04 0.0000000000000000e+00  -8.6628615858935651e-06 4.5000000000000004e-04 0.0000000000000000e+00  -8.1973822059827490e-06 4.5000000000000004e-04 0.0000000000000000e+00  -7.7219205698559870e-06 4.5000000000000004e-04 0.0000000000000000e+00  -7.2527360850412517e-06 4.5000000000000004e-04 0.0000000000000000e+00  -6.7913711030561886e-06 4.5000000000000004e-04 0.0000000000000000e+00  -6.3396248452963087e-06 4.5000000000000004e-04 0.0000000000000000e+00  -5.9012226648825427e-06 4.5000000000000004e-04 0.0000000000000000e+00  -5.4799096291118193e-06 4.5000000000000004e-04 0.0000000000000000e+00  -5.0784006351282605e-06 4.5000000000000004e-04 0.0000000000000000e+00  -4.6913809920039406e-06 4.5000000000000004e-04 0.0000000000000000e+00  -4.3273313064278803e-06 4.5000000000000004e-04 0.0000000000000000e+00  -3.9853081312934822e-06 4.5000000000000004e-04 0.0000000000000000e+00  -3.6667538607139710e-06 4.5000000000000004e-04 0.0000000000000000e+00  -3.3702692083008367e-06 4.5000000000000004e-04 0.0000000000000000e+00  -3.0948475668255195e-06 4.5000000000000004e-04 0.0000000000000000e+00  -2.8399967412452150e-06 4.5000000000000004e-04 0.0000000000000000e+00  -2.6070480965601697e-06 4.5000000000000004e-04 0.0000000000000000e+00  -2.3936531205518719e-06 4.5000000000000004e-04 0.0000000000000000e+00  -2.1987205536945367e-06 4.5000000000000004e-04 0.0000000000000000e+00  -2.0191377437791433e-06 4.5000000000000004e-04 0.0000000000000000e+00  -1.8562696710814180e-06 4.5000000000000004e-04 0.0000000000000000e+00  -1.7061016822095407e-06 4.5000000000000004e-04 0.0000000000000000e+00  -1.5693493779201745e-06 4.5000000000000004e-04 0.0000000000000000e+00  -1.4422894222005157e-06 4.5000000000000004e-04 0.0000000000000000e+00  -1.3247275426433619e-06 4.5000000000000004e-04 0.0000000000000000e+00  -1.2143873112821808e-06 4.5000000000000004e-04 0.0000000000000000e+00  -1.1094703685493062e-06 4.5000000000000004e-04 0.0000000000000000e+00  -1.0086354024294727e-06 4.5000000000000004e-04 0.0000000000000000e+00  -9.1008634956571733e-07 4.5000000000000004e-04 0.0000000000000000e+00  -8.1151879584655805e-07 4.5000000000000004e-04 0.0000000000000000e+00  -7.1210280982942351e-07 4.5000000000000004e-04 0.0000000000000000e+00  -6.1037840234619646e-07 4.5000000000000004e-04 0.0000000000000000e+00  -5.0508880486449049e-07 4.5000000000000004e-04 0.0000000000000000e+00  -3.9315980299355221e-07 4.5000000000000004e-04 0.0000000000000000e+00  -2.7545207200590762e-07 4.5000000000000004e-04 0.0000000000000000e+00  -1.5020190992724440e-07 4.5000000000000004e-04 0.0000000000000000e+00  -1.4829496258856305e-08 4.5000000000000004e-04 0.0000000000000000e+00  1.3064409425561904e-07 4.5000000000000004e-04 0.0000000000000000e+00  2.8767584572875449e-07 4.5000000000000004e-04 0.0000000000000000e+00  4.5787743982763933e-07 4.5000000000000004e-04 0.0000000000000000e+00  6.4037336624198566e-07 4.5000000000000004e-04 0.0000000000000000e+00  8.3613105113006870e-07 4.5000000000000004e-04 0.0000000000000000e+00  1.0458918302559685e-06 4.5000000000000004e-04 0.0000000000000000e+00  1.2709318469604738e-06 4.5000000000000004e-04 0.0000000000000000e+00  1.5110265121279747e-06 4.5000000000000004e-04 0.0000000000000000e+00  1.7667967235401305e-06 4.5000000000000004e-04 0.0000000000000000e+00  2.0389563444222640e-06 4.5000000000000004e-04 0.0000000000000000e+00  2.3269612530000507e-06 4.5000000000000004e-04 0.0000000000000000e+00  2.6329073164536400e-06 4.5000000000000004e-04 0.0000000000000000e+00  2.9559509504717435e-06 4.5000000000000004e-04 0.0000000000000000e+00  3.2943210211791143e-06 4.5000000000000004e-04 0.0000000000000000e+00  3.6515623621786871e-06 4.5000000000000004e-04 0.0000000000000000e+00  4.0260903753107533e-06 4.5000000000000004e-04 0.0000000000000000e+00  4.4183465315161523e-06 4.5000000000000004e-04 0.0000000000000000e+00  4.8276035703663148e-06 4.5000000000000004e-04 0.0000000000000000e+00  5.2516447034085273e-06 4.5000000000000004e-04 0.0000000000000000e+00  5.6978169487979118e-06 4.5000000000000004e-04 0.0000000000000000e+00  6.1488288564343305e-06 4.5000000000000004e-04 0.0000000000000000e+00  6.6134846096172971e-06 4.5000000000000004e-04 0.0000000000000000e+00  7.0881079689787991e-06 4.5000000000000004e-04 0.0000000000000000e+00  7.5700015229382658e-06 4.5000000000000004e-04 0.0000000000000000e+00  8.0475799118780016e-06 4.5000000000000004e-04 0.0000000000000000e+00  8.5233753418168784e-06 4.5000000000000004e-04 0.0000000000000000e+00  8.9882957384217576e-06 4.5000000000000004e-04 0.0000000000000000e+00  9.4376627048786727e-06 4.5000000000000004e-04 0.0000000000000000e+00  9.8665767976889793e-06 4.5000000000000004e-04 0.0000000000000000e+00  1.0251812808165475e-05 4.5000000000000004e-04 0.0000000000000000e+00  1.0594848140475187e-05 4.5000000000000004e-04 0.0000000000000000e+00  1.0876067816763399e-05 4.5000000000000004e-04 0.0000000000000000e+00  1.1114041558009157e-05 4.5000000000000004e-04 0.0000000000000000e+00  1.1266938472683198e-05 4.5000000000000004e-04 0.0000000000000000e+00  1.1327240973078082e-05 4.5000000000000004e-04 0.0000000000000000e+00  1.1301854285870909e-05 4.5000000000000004e-04 0.0000000000000000e+00  1.1150111116602087e-05 4.5000000000000004e-04 0.0000000000000000e+00  1.0912668346542950e-05 4.5000000000000004e-04 0.0000000000000000e+00  1.0539368508460434e-05 4.5000000000000004e-04 0.0000000000000000e+00  1.0003816231505581e-05 4.5000000000000004e-04 0.0000000000000000e+00  9.3126014919892066e-06 4.5000000000000004e-04 0.0000000000000000e+00  8.4832486374090454e-06 4.5000000000000004e-04 0.0000000000000000e+00  7.4880340578060962e-06 4.5000000000000004e-04 0.0000000000000000e+00  6.3280633938566071e-06 4.5000000000000004e-04 0.0000000000000000e+00  5.0184080148056560e-06 4.5000000000000004e-04 0.0000000000000000e+00  3.5446840440438287e-06 4.5000000000000004e-04 0.0000000000000000e+00  1.9753707651958915e-06 4.5000000000000004e-04 0.0000000000000000e+00  2.1857070659666221e-07 4.5000000000000004e-04 0.0000000000000000e+00  -1.6630974869887276e-06 4.5000000000000004e-04 0.0000000000000000e+00  -3.6623065402108626e-06 4.5000000000000004e-04 0.0000000000000000e+00  -5.7745194751404600e-06 4.5000000000000004e-04 0.0000000000000000e+00  -7.9718538813173771e-06 4.5000000000000004e-04 0.0000000000000000e+00  -1.0268500512346418e-05 4.5000000000000004e-04 0.0000000000000000e+00  -1.2623483519579607e-05 4.5000000000000004e-04 0.0000000000000000e+00  -1.5051702483615502e-05 4.5000000000000004e-04 0.0000000000000000e+00  -1.7522727161369298e-05 4.5000000000000004e-04 0.0000000000000000e+00  -2.0031105646005116e-05 4.5000000000000004e-04 0.0000000000000000e+00  -2.2568466697284142e-05 4.5000000000000004e-04 0.0000000000000000e+00  -2.5135401572100157e-05 4.5000000000000004e-04 0.0000000000000000e+00  -2.7713055881793818e-05 4.5000000000000004e-04 0.0000000000000000e+00  -3.0304188190332925e-05 4.5000000000000004e-04 0.0000000000000000e+00  -3.2900247423284830e-05 4.5000000000000004e-04 0.0000000000000000e+00  -3.5499418206756328e-05 4.5000000000000004e-04 0.0000000000000000e+00  -3.8099271727235855e-05 4.5000000000000004e-04 0.0000000000000000e+00  -4.0697790346584206e-05 4.5000000000000004e-04 0.0000000000000000e+00  -4.3294040343118043e-05 4.5000000000000004e-04 0.0000000000000000e+00  -4.5886934432134921e-05 4.5000000000000004e-04 0.0000000000000000e+00  -4.8477817235350698e-05 4.5000000000000004e-04 0.0000000000000000e+00  -5.1066410923528259e-05 4.5000000000000004e-04 0.0000000000000000e+00  -5.3653769615935234e-05 4.5000000000000004e-04 0.0000000000000000e+00  -5.6239100873375314e-05 4.5000000000000004e-04 0.0000000000000000e+00  -5.8824233343255028e-05 4.5000000000000004e-04 0.0000000000000000e+00  -6.1411654693656844e-05 4.5000000000000004e-04 0.0000000000000000e+00  -6.4001618237543922e-05 4.5000000000000004e-04 0.0000000000000000e+00  -6.6596553088538535e-05 4.5000000000000004e-04 0.0000000000000000e+00  -6.9196961043351975e-05 4.5000000000000004e-04 0.0000000000000000e+00  -7.1803066333115572e-05 4.5000000000000004e-04 0.0000000000000000e+00  -7.4417987604812752e-05 4.5000000000000004e-04 0.0000000000000000e+00  -7.7043016096602621e-05 4.5000000000000004e-04 0.0000000000000000e+00  -7.9679890330038096e-05 4.5000000000000004e-04 0.0000000000000000e+00  -8.2328028366894203e-05 4.5000000000000004e-04 0.0000000000000000e+00  -8.4983388075066395e-05 4.5000000000000004e-04 0.0000000000000000e+00  -8.7655425905587870e-05 4.5000000000000004e-04 0.0000000000000000e+00  -9.0342500638457377e-05 4.5000000000000004e-04 0.0000000000000000e+00  -9.3047506668240287e-05 4.5000000000000004e-04 0.0000000000000000e+00  -9.5758659127399159e-05 4.5000000000000004e-04 0.0000000000000000e+00  -9.8490830334792880e-05 4.5000000000000004e-04 0.0000000000000000e+00  -1.0124250616991111e-04 4.5000000000000004e-04 0.0000000000000000e+00  -1.0400312560425082e-04 4.5000000000000004e-04 0.0000000000000000e+00  -1.0678307474391773e-04 4.5000000000000004e-04 0.0000000000000000e+00  -1.0957979791441289e-04 4.5000000000000004e-04 0.0000000000000000e+00  -1.1239400570118183e-04 4.5000000000000004e-04 0.0000000000000000e+00  -1.1522160165867315e-04 4.5000000000000004e-04 0.0000000000000000e+00  -1.1806082800020207e-04 4.5000000000000004e-04 0.0000000000000000e+00  -1.2091482261096715e-04 4.5000000000000004e-04 0.0000000000000000e+00  -1.2378474337762261e-04 4.5000000000000004e-04 0.0000000000000000e+00  -1.2666478986506216e-04 4.5000000000000004e-04 0.0000000000000000e+00  -1.2955464181808760e-04 4.5000000000000004e-04 0.0000000000000000e+00  -1.3245429733872499e-04 4.5000000000000004e-04 0.0000000000000000e+00  -1.3536405130848761e-04 4.5000000000000004e-04 0.0000000000000000e+00  -1.3827629341162337e-04 4.5000000000000004e-04 0.0000000000000000e+00  -1.4119747340557215e-04 4.5000000000000004e-04 0.0000000000000000e+00  -1.4411527559949735e-04 4.5000000000000004e-04 0.0000000000000000e+00  -1.4703906336621577e-04 4.5000000000000004e-04 0.0000000000000000e+00  -1.4996263325061602e-04 4.5000000000000004e-04 0.0000000000000000e+00  -1.5287808961354524e-04 4.5000000000000004e-04 0.0000000000000000e+00  -1.5578954507896900e-04 4.5000000000000004e-04 0.0000000000000000e+00  -1.5869449582219384e-04 4.5000000000000004e-04 0.0000000000000000e+00  -1.6158827915020263e-04 4.5000000000000004e-04 0.0000000000000000e+00  -1.6446660238439412e-04 4.5000000000000004e-04 0.0000000000000000e+00  -1.6733884729757707e-04 4.5000000000000004e-04 0.0000000000000000e+00  -1.7018875400771905e-04 4.5000000000000004e-04 0.0000000000000000e+00  -1.7301788766838856e-04 4.5000000000000004e-04 0.0000000000000000e+00  -1.7582441108672891e-04 4.5000000000000004e-04 0.0000000000000000e+00  -1.7860244615541479e-04 4.5000000000000004e-04 0.0000000000000000e+00  -1.8135616628944530e-04 4.5000000000000004e-04 0.0000000000000000e+00  -1.8408533349708993e-04 4.5000000000000004e-04 0.0000000000000000e+00  -1.8676849282713769e-04 4.5000000000000004e-04 0.0000000000000000e+00  -1.8943068016305791e-04 4.5000000000000004e-04 0.0000000000000000e+00  -1.9201211915150187e-04 4.4216990573890213e-04 0.0000000000000000e+00  -1.9183749374532269e-04 4.3433755810841465e-04 0.0000000000000000e+00  -1.9159114245441043e-04 4.2650270033995475e-04 0.0000000000000000e+00  -1.9121027195664542e-04 4.1866484741253496e-04 0.0000000000000000e+00  -1.9073392665131561e-04 4.1083677107763597e-04 0.0000000000000000e+00  -1.9012796696289808e-04 4.0298406110074274e-04 0.0000000000000000e+00  -1.8942767606171400e-04 3.9514614751098973e-04 0.0000000000000000e+00  -1.8862170955317260e-04 3.8728784115194827e-04 0.0000000000000000e+00  -1.8769441651912615e-04 3.7942631177662235e-04 0.0000000000000000e+00  -1.8665297124866693e-04 3.7157228747108586e-04 0.0000000000000000e+00  -1.8550103471198413e-04 3.6369091450291411e-04 0.0000000000000000e+00  -1.8423093515821935e-04 3.5580799350944998e-04 0.0000000000000000e+00  -1.8284905406361669e-04 3.4790472154607913e-04 0.0000000000000000e+00  -1.8133989186722472e-04 3.4001204401603636e-04 0.0000000000000000e+00  -1.7971800058434238e-04 3.3207974060514079e-04 0.0000000000000000e+00  -1.7796774787923330e-04 3.2412697269587799e-04 0.0000000000000000e+00  -1.7608925109858270e-04 3.1617788399108813e-04 0.0000000000000000e+00  -1.7408572698940919e-04 3.0818910667135431e-04 0.0000000000000000e+00  -1.7194481567680590e-04 3.0020016088476409e-04 0.0000000000000000e+00  -1.6967056744299620e-04 2.9217808350411755e-04 0.0000000000000000e+00  -1.6726596577594819e-04 2.8410601596360848e-04 0.0000000000000000e+00  -1.6470934309587219e-04 2.7604134472759882e-04 0.0000000000000000e+00  -1.6201490627101143e-04 2.6791469345122890e-04 0.0000000000000000e+00  -1.5915780468339535e-04 2.5977181251146388e-04 0.0000000000000000e+00  -1.5616409210460531e-04 2.5157003543164070e-04 0.0000000000000000e+00  -1.5299351140071835e-04 2.4335442965757817e-04 0.0000000000000000e+00  -1.4967988393809151e-04 2.3504895653821096e-04 0.0000000000000000e