<?xml version="1.0"?>
<VTKFile type="UnstructuredGrid"  version="0.1"  >
<UnstructuredGrid>
<Piece  NumberOfPoints="16512" NumberOfCells="32424">
<Points>
<DataArray  type="Float64"  NumberOfComponents="3"  format="ascii">-25 4.9 0  25 4.9 0  25 -4.9 0  -25 -4.9 0  -10 0 0  10 0 0  -24.80000000000034 4.9 0  -24.60000000000068 4.9 0  -24.40000000000101 4.9 0  -24.20000000000135 4.9 0  -24.00000000000169 4.9 0  -23.80000000000203 4.9 0  -23.60000000000237 4.9 0  -23.40000000000271 4.9 0  -23.20000000000304 4.9 0  -23.00000000000338 4.9 0  -22.80000000000372 4.9 0  -22.60000000000406 4.9 0  -22.40000000000439 4.9 0  -22.20000000000473 4.9 0  -22.00000000000507 4.9 0  -21.80000000000541 4.9 0  -21.60000000000575 4.9 0  -21.40000000000608 4.9 0  -21.20000000000642 4.9 0  -21.00000000000676 4.9 0  -20.8000000000071 4.9 0  -20.60000000000744 4.9 0  -20.40000000000777 4.9 0  -20.20000000000811 4.9 0  -20.00000000000845 4.9 0  -19.80000000000879 4.9 0  -19.60000000000912 4.9 0  -19.40000000000946 4.9 0  -19.2000000000098 4.9 0  -19.00000000001039 4.9 0  -18.80000000001108 4.9 0  -18.60000000001231 4.9 0  -18.40000000001371 4.9 0  -18.2000000000154 4.9 0  -18.00000000001716 4.9 0  -17.80000000001892 4.9 0  -17.60000000002067 4.9 0  -17.40000000002243 4.9 0  -17.20000000002419 4.9 0  -17.00000000002595 4.9 0  -16.80000000002771 4.9 0  -16.60000000002947 4.9 0  -16.40000000003123 4.9 0  -16.20000000003299 4.9 0  -16.00000000003472 4.9 0  -15.80000000003612 4.9 0  -15.60000000003748 4.9 0  -15.40000000003853 4.9 0  -15.20000000003958 4.9 0  -15.00000000004063 4.9 0  -14.80000000004168 4.9 0  -14.60000000004273 4.9 0  -14.40000000004377 4.9 0  -14.20000000004482 4.9 0  -14.00000000004587 4.9 0  -13.80000000004692 4.9 0  -13.60000000004797 4.9 0  -13.40000000004902 4.9 0  -13.20000000005007 4.9 0  -13.00000000005111 4.9 0  -12.80000000005216 4.9 0  -12.60000000005321 4.9 0  -12.40000000005426 4.9 0  -12.20000000005531 4.9 0  -12.00000000005636 4.9 0  -11.80000000005741 4.9 0  -11.60000000005846 4.9 0  -11.4000000000595 4.9 0  -11.20000000006055 4.9 0  -11.0000000000616 4.9 0  -10.80000000006265 4.9 0  -10.6000000000637 4.9 0  -10.40000000006475 4.9 0  -10.2000000000658 4.9 0  -10.00000000006684 4.9 0  -9.800000000067891 4.9 0  -9.60000000006894 4.9 0  -9.400000000069989 4.9 0  -9.200000000070727 4.9 0  -9.00000000007142 4.9 0  -8.800000000071787 4.9 0  -8.600000000072125 4.9 0  -8.400000000072467 4.9 0  -8.200000000072805 4.9 0  -8.000000000073143 4.9 0  -7.800000000073481 4.9 0  -7.60000000007382 4.9 0  -7.400000000074154 4.9 0  -7.200000000074493 4.9 0  -7.000000000074831 4.9 0  -6.800000000075173 4.9 0  -6.600000000075511 4.9 0  -6.400000000075849 4.9 0  -6.200000000076187 4.9 0  -6.000000000076525 4.9 0  -5.800000000076867 4.9 0  -5.600000000077205 4.9 0  -5.400000000077544 4.9 0  -5.200000000077882 4.9 0  -5.00000000007822 4.9 0  -4.800000000078558 4.9 0  -4.600000000078897 4.9 0  -4.400000000079235 4.9 0  -4.200000000079573 4.9 0  -4.000000000079908 4.9 0  -3.800000000080246 4.9 0  -3.600000000080588 4.9 0  -3.400000000080926 4.9 0  -3.200000000081264 4.9 0  -3.000000000081606 4.9 0  -2.800000000081944 4.9 0  -2.600000000082282 4.9 0  -2.40000000008262 4.9 0  -2.200000000082959 4.9 0  -2.000000000083297 4.9 0  -1.800000000083635 4.9 0  -1.600000000083973 4.9 0  -1.400000000084312 4.9 0  -1.20000000008465 4.9 0  -1.000000000084988 4.9 0  -0.8000000000853262 4.9 0  -0.6000000000856645 4.9 0  -0.4000000000860027 4.9 0  -0.2000000000863409 4.9 0  -8.667910833537462e-11 4.9 0  0.1999999999129827 4.9 0  0.3999999999126409 4.9 0  0.5999999999123027 4.9 0  0.7999999999119716 4.9 0  0.9999999999116262 4.9 0  1.199999999911295 4.9 0  1.39999999991095 4.9 0  1.599999999910619 4.9 0  1.799999999910273 4.9 0  1.999999999909939 4.9 0  2.199999999909597 4.9 0  2.399999999909262 4.9 0  2.599999999908921 4.9 0  2.799999999908582 4.9 0  2.999999999908244 4.9 0  3.199999999907906 4.9 0  3.399999999907564 4.9 0  3.599999999907226 4.9 0  3.799999999906888 4.9 0  3.999999999906549 4.9 0  4.199999999906218 4.9 0  4.399999999905873 4.9 0  4.599999999905542 4.9 0  4.799999999905197 4.9 0  4.999999999904865 4.9 0  5.19999999990452 4.9 0  5.399999999904182 4.9 0  5.599999999903844 4.9 0  5.799999999903505 4.9 0  5.999999999903167 4.9 0  6.199999999902829 4.9 0  6.399999999902491 4.9 0  6.599999999902153 4.9 0  6.799999999902379 4.9 0  6.999999999902752 4.9 0  7.199999999903724 4.9 0  7.399999999904807 4.9 0  7.59999999990589 4.9 0  7.799999999906966 4.9 0  7.999999999908056 4.9 0  8.199999999909132 4.9 0  8.399999999910214 4.9 0  8.59999999991129 4.9 0  8.79999999991238 4.9 0  8.999999999913456 4.9 0  9.199999999914539 4.9 0  9.399999999915622 4.9 0  9.599999999916704 4.9 0  9.79999999991778 4.9 0  9.99999999991887 4.9 0  10.19999999991995 4.9 0  10.39999999992103 4.9 0  10.59999999992212 4.9 0  10.79999999992319 4.9 0  10.99999999992428 4.9 0  11.19999999992536 4.9 0  11.39999999992644 4.9 0  11.59999999992752 4.9 0  11.7999999999286 4.9 0  11.99999999992968 4.9 0  12.19999999993077 4.9 0  12.39999999993184 4.9 0  12.59999999993293 4.9 0  12.79999999993401 4.9 0  12.99999999993509 4.9 0  13.19999999993617 4.9 0  13.39999999993726 4.9 0  13.59999999993834 4.9 0  13.79999999993942 4.9 0  13.99999999994051 4.9 0  14.19999999994158 4.9 0  14.39999999994266 4.9 0  14.59999999994375 4.9 0  14.79999999994483 4.9 0  14.99999999994591 4.9 0  15.199999999947 4.9 0  15.39999999994807 4.9 0  15.59999999994915 4.9 0  15.79999999995024 4.9 0  15.99999999995132 4.9 0  16.1999999999524 4.9 0  16.39999999995349 4.9 0  16.59999999995456 4.9 0  16.79999999995565 4.9 0  16.99999999995674 4.9 0  17.19999999995781 4.9 0  17.39999999995889 4.9 0  17.59999999995997 4.9 0  17.79999999996106 4.9 0  17.99999999996214 4.9 0  18.19999999996322 4.9 0  18.3999999999643 4.9 0  18.59999999996538 4.9 0  18.79999999996646 4.9 0  18.99999999996755 4.9 0  19.19999999996863 4.9 0  19.39999999996971 4.9 0  19.59999999997079 4.9 0  19.79999999997187 4.9 0  19.99999999997296 4.9 0  20.19999999997404 4.9 0  20.39999999997512 4.9 0  20.5999999999762 4.9 0  20.79999999997728 4.9 0  20.99999999997836 4.9 0  21.19999999997945 4.9 0  21.39999999998052 4.9 0  21.59999999998161 4.9 0  21.79999999998269 4.9 0  21.99999999998377 4.9 0  22.19999999998485 4.9 0  22.39999999998594 4.9 0  22.59999999998701 4.9 0  22.7999999999881 4.9 0  22.99999999998919 4.9 0  23.19999999999026 4.9 0  23.39999999999135 4.9 0  23.59999999999243 4.9 0  23.79999999999351 4.9 0  23.99999999999459 4.9 0  24.19999999999568 4.9 0  24.39999999999675 4.9 0  24.59999999999783 4.9 0  24.79999999999892 4.9 0  25 4.700000000000415 0  25 4.500000000000868 0  25 4.300000000001562 0  25 4.100000000001831 0  25 3.900000000002072 0  25 3.700000000002459 0  25 3.500000000003038 0  25 3.300000000003653 0  25 3.100000000004294 0  25 2.900000000004838 0  25 2.700000000005293 0  25 2.500000000005957 0  25 2.300000000006508 0  25 2.100000000007153 0  25 1.900000000007722 0  25 1.700000000008417 0  25 1.500000000008938 0  25 1.30000000000963 0  25 1.100000000010154 0  25 0.9000000000108268 0  25 0.7000000000114559 0  25 0.5000000000119762 0  25 0.3000000000126564 0  25 0.1000000000131926 0  25 -0.09999999998679243 0  25 -0.2999999999874587 0  25 -0.4999999999878586 0  25 -0.6999999999884441 0  25 -0.899999999988804 0  25 -1.099999999989427 0  25 -1.299999999989749 0  25 -1.499999999990411 0  25 -1.69999999999073 0  25 -1.899999999991396 0  25 -2.099999999991715 0  25 -2.299999999992381 0  25 -2.499999999993047 0  25 -2.699999999993714 0  25 -2.899999999994227 0  25 -3.099999999994698 0  25 -3.299999999994673 0  25 -3.499999999995339 0  25 -3.699999999996004 0  25 -3.89999999999667 0  25 -4.099999999997335 0  25 -4.299999999998002 0  25 -4.499999999998668 0  25 -4.699999999999335 0  24.80000000000034 -4.9 0  24.60000000000068 -4.9 0  24.40000000000101 -4.9 0  24.20000000000135 -4.9 0  24.00000000000169 -4.9 0  23.80000000000203 -4.9 0  23.60000000000237 -4.9 0  23.40000000000271 -4.9 0  23.20000000000304 -4.9 0  23.00000000000338 -4.9 0  22.80000000000372 -4.9 0  22.60000000000406 -4.9 0  22.40000000000439 -4.9 0  22.20000000000473 -4.9 0  22.00000000000507 -4.9 0  21.80000000000541 -4.9 0  21.60000000000575 -4.9 0  21.40000000000608 -4.9 0  21.20000000000642 -4.9 0  21.00000000000676 -4.9 0  20.8000000000071 -4.9 0  20.60000000000744 -4.9 0  20.40000000000777 -4.9 0  20.20000000000811 -4.9 0  20.00000000000845 -4.9 0  19.80000000000879 -4.9 0  19.60000000000912 -4.9 0  19.40000000000946 -4.9 0  19.2000000000098 -4.9 0  19.00000000001039 -4.9 0  18.80000000001108 -4.9 0  18.60000000001231 -4.9 0  18.40000000001371 -4.9 0  18.2000000000154 -4.9 0  18.00000000001716 -4.9 0  17.80000000001892 -4.9 0  17.60000000002067 -4.9 0  17.40000000002243 -4.9 0  17.20000000002419 -4.9 0  17.00000000002595 -4.9 0  16.80000000002771 -4.9 0  16.60000000002947 -4.9 0  16.40000000003123 -4.9 0  16.20000000003299 -4.9 0  16.00000000003472 -4.9 0  15.80000000003612 -4.9 0  15.60000000003748 -4.9 0  15.40000000003853 -4.9 0  15.20000000003958 -4.9 0  15.00000000004063 -4.9 0  14.80000000004168 -4.9 0  14.60000000004273 -4.9 0  14.40000000004377 -4.9 0  14.20000000004482 -4.9 0  14.00000000004587 -4.9 0  13.80000000004692 -4.9 0  13.60000000004797 -4.9 0  13.40000000004902 -4.9 0  13.20000000005007 -4.9 0  13.00000000005111 -4.9 0  12.80000000005216 -4.9 0  12.60000000005321 -4.9 0  12.40000000005426 -4.9 0  12.20000000005531 -4.9 0  12.00000000005636 -4.9 0  11.80000000005741 -4.9 0  11.60000000005846 -4.9 0  11.4000000000595 -4.9 0  11.20000000006055 -4.9 0  11.0000000000616 -4.9 0  10.80000000006265 -4.9 0  10.6000000000637 -4.9 0  10.40000000006475 -4.9 0  10.2000000000658 -4.9 0  10.00000000006684 -4.9 0  9.800000000067891 -4.9 0  9.60000000006894 -4.9 0  9.400000000069989 -4.9 0  9.200000000070727 -4.9 0  9.00000000007142 -4.9 0  8.800000000071787 -4.9 0  8.600000000072125 -4.9 0  8.400000000072467 -4.9 0  8.200000000072805 -4.9 0  8.000000000073143 -4.9 
[...]
<PointData  Vectors="f_7"> 
<DataArray  type="Float64"  Name="f_7"  NumberOfComponents="3" format="ascii">1.5892197015848373e-04 3.6999999999999999e-04 0.0000000000000000e+00  -1.5906471022010597e-04 3.6999999999999999e-04 0.0000000000000000e+00  0.0000000000000000e+00 0.0000000000000000e+00 0.0000000000000000e+00  0.0000000000000000e+00 0.0000000000000000e+00 0.0000000000000000e+00  2.8434522195470932e-05 1.8532056440224255e-04 0.0000000000000000e+00  -2.7847384678164847e-05 1.8223786917934338e-04 0.0000000000000000e+00  1.5675305128836964e-04 3.6999999999999999e-04 0.0000000000000000e+00  1.5456811112336244e-04 3.6999999999999999e-04 0.0000000000000000e+00  1.5236965773701214e-04 3.6999999999999999e-04 0.0000000000000000e+00  1.5012483442195044e-04 3.6999999999999999e-04 0.0000000000000000e+00  1.4786992404608833e-04 3.6999999999999999e-04 0.0000000000000000e+00  1.4558153882637429e-04 3.6999999999999999e-04 0.0000000000000000e+00  1.4327975555444730e-04 3.6999999999999999e-04 0.0000000000000000e+00  1.4095113407936024e-04 3.6999999999999999e-04 0.0000000000000000e+00  1.3861732822202034e-04 3.6999999999999999e-04 0.0000000000000000e+00  1.3626126362264855e-04 3.6999999999999999e-04 0.0000000000000000e+00  1.3389351360467428e-04 3.6999999999999999e-04 0.0000000000000000e+00  1.3152595539037997e-04 3.6999999999999999e-04 0.0000000000000000e+00  1.2913256990653604e-04 3.6999999999999999e-04 0.0000000000000000e+00  1.2674252528876745e-04 3.6999999999999999e-04 0.0000000000000000e+00  1.2435112733138833e-04 3.6999999999999999e-04 0.0000000000000000e+00  1.2196038277630232e-04 3.6999999999999999e-04 0.0000000000000000e+00  1.1955347718286234e-04 3.6999999999999999e-04 0.0000000000000000e+00  1.1715631346351886e-04 3.6999999999999999e-04 0.0000000000000000e+00  1.1476720432652141e-04 3.6999999999999999e-04 0.0000000000000000e+00  1.1237038203809205e-04 3.6999999999999999e-04 0.0000000000000000e+00  1.0998368483857290e-04 3.6999999999999999e-04 0.0000000000000000e+00  1.0760489585315293e-04 3.6999999999999999e-04 0.0000000000000000e+00  1.0523803398719640e-04 3.6999999999999999e-04 0.0000000000000000e+00  1.0288438973579079e-04 3.6999999999999999e-04 0.0000000000000000e+00  1.0052582723358346e-04 3.6999999999999999e-04 0.0000000000000000e+00  9.8184182991561256e-05 3.6999999999999999e-04 0.0000000000000000e+00  9.5858026670808400e-05 3.6999999999999999e-04 0.0000000000000000e+00  9.3541930867775227e-05 3.6999999999999999e-04 0.0000000000000000e+00  9.1239344980882414e-05 3.6999999999999999e-04 0.0000000000000000e+00  8.8951729971960261e-05 3.6999999999999999e-04 0.0000000000000000e+00  8.6675270314739579e-05 3.6999999999999999e-04 0.0000000000000000e+00  8.4413642864215982e-05 3.6999999999999999e-04 0.0000000000000000e+00  8.2166799576436500e-05 3.6999999999999999e-04 0.0000000000000000e+00  7.9937112439699279e-05 3.6999999999999999e-04 0.0000000000000000e+00  7.7712024994268811e-05 3.6999999999999999e-04 0.0000000000000000e+00  7.5505452144615913e-05 3.6999999999999999e-04 0.0000000000000000e+00  7.3310427268513621e-05 3.6999999999999999e-04 0.0000000000000000e+00  7.1130591372175735e-05 3.6999999999999999e-04 0.0000000000000000e+00  6.8958060683477733e-05 3.6999999999999999e-04 0.0000000000000000e+00  6.6798621020673152e-05 3.6999999999999999e-04 0.0000000000000000e+00  6.4651026900568607e-05 3.6999999999999999e-04 0.0000000000000000e+00  6.2512633110196756e-05 3.6999999999999999e-04 0.0000000000000000e+00  6.0382434204330266e-05 3.6999999999999999e-04 0.0000000000000000e+00  5.8259670973106075e-05 3.6999999999999999e-04 0.0000000000000000e+00  5.6142856092185002e-05 3.6999999999999999e-04 0.0000000000000000e+00  5.4032006857161784e-05 3.6999999999999999e-04 0.0000000000000000e+00  5.1926010627616609e-05 3.6999999999999999e-04 0.0000000000000000e+00  4.9823202983459245e-05 3.6999999999999999e-04 0.0000000000000000e+00  4.7723106625835511e-05 3.6999999999999999e-04 0.0000000000000000e+00  4.5625288706331043e-05 3.6999999999999999e-04 0.0000000000000000e+00  4.3527688853656136e-05 3.6999999999999999e-04 0.0000000000000000e+00  4.1429207478802950e-05 3.6999999999999999e-04 0.0000000000000000e+00  3.9331083041196539e-05 3.6999999999999999e-04 0.0000000000000000e+00  3.7230717049347180e-05 3.6999999999999999e-04 0.0000000000000000e+00  3.5131625938704060e-05 3.6999999999999999e-04 0.0000000000000000e+00  3.3031680995790821e-05 3.6999999999999999e-04 0.0000000000000000e+00  3.0931680255934006e-05 3.6999999999999999e-04 0.0000000000000000e+00  2.8832622068017802e-05 3.6999999999999999e-04 0.0000000000000000e+00  2.6738372157202062e-05 3.6999999999999999e-04 0.0000000000000000e+00  2.4648538002684817e-05 3.6999999999999999e-04 0.0000000000000000e+00  2.2575135418296334e-05 3.6999999999999999e-04 0.0000000000000000e+00  2.0514004981743463e-05 3.6999999999999999e-04 0.0000000000000000e+00  1.8472084839332129e-05 3.6999999999999999e-04 0.0000000000000000e+00  1.6452589088562803e-05 3.6999999999999999e-04 0.0000000000000000e+00  1.4464558866246078e-05 3.6999999999999999e-04 0.0000000000000000e+00  1.2522705228155385e-05 3.6999999999999999e-04 0.0000000000000000e+00  1.0631517619419527e-05 3.6999999999999999e-04 0.0000000000000000e+00  8.8121905072999137e-06 3.6999999999999999e-04 0.0000000000000000e+00  7.0502695606701688e-06 3.6999999999999999e-04 0.0000000000000000e+00  5.3502033945107840e-06 3.6999999999999999e-04 0.0000000000000000e+00  3.7478421598504851e-06 3.6999999999999999e-04 0.0000000000000000e+00  2.2596658100359921e-06 3.6999999999999999e-04 0.0000000000000000e+00  8.7415970681513578e-07 3.6999999999999999e-04 0.0000000000000000e+00  -4.1940967541770922e-07 3.6999999999999999e-04 0.0000000000000000e+00  -1.5702427503303188e-06 3.6999999999999999e-04 0.0000000000000000e+00  -2.6171089032702976e-06 3.6999999999999999e-04 0.0000000000000000e+00  -3.5353690196684818e-06 3.6999999999999999e-04 0.0000000000000000e+00  -4.3172337155369134e-06 3.6999999999999999e-04 0.0000000000000000e+00  -4.9819312291671969e-06 3.6999999999999999e-04 0.0000000000000000e+00  -5.5354276889700179e-06 3.6999999999999999e-04 0.0000000000000000e+00  -5.9718083868638202e-06 3.6999999999999999e-04 0.0000000000000000e+00  -6.2963030455991107e-06 3.6999999999999999e-04 0.0000000000000000e+00  -6.5154520380289749e-06 3.6999999999999999e-04 0.0000000000000000e+00  -6.6404631318180216e-06 3.6999999999999999e-04 0.0000000000000000e+00  -6.6918128326345081e-06 3.6999999999999999e-04 0.0000000000000000e+00  -6.6740432926984480e-06 3.6999999999999999e-04 0.0000000000000000e+00  -6.5827850540720021e-06 3.6999999999999999e-04 0.0000000000000000e+00  -6.4315148302216727e-06 3.6999999999999999e-04 0.0000000000000000e+00  -6.2441027955001003e-06 3.6999999999999999e-04 0.0000000000000000e+00  -6.0198999005147968e-06 3.6999999999999999e-04 0.0000000000000000e+00  -5.7670157132248175e-06 3.6999999999999999e-04 0.0000000000000000e+00  -5.4830161154285165e-06 3.6999999999999999e-04 0.0000000000000000e+00  -5.1873383929764009e-06 3.6999999999999999e-04 0.0000000000000000e+00  -4.8817252317477191e-06 3.6999999999999999e-04 0.0000000000000000e+00  -4.5733649551433512e-06 3.6999999999999999e-04 0.0000000000000000e+00  -4.2595748315861058e-06 3.6999999999999999e-04 0.0000000000000000e+00  -3.9519482963488413e-06 3.6999999999999999e-04 0.0000000000000000e+00  -3.6518737516942408e-06 3.6999999999999999e-04 0.0000000000000000e+00  -3.3608208971907276e-06 3.6999999999999999e-04 0.0000000000000000e+00  -3.0813594719736168e-06 3.6999999999999999e-04 0.0000000000000000e+00  -2.8161009968536858e-06 3.6999999999999999e-04 0.0000000000000000e+00  -2.5670427912886109e-06 3.6999999999999999e-04 0.0000000000000000e+00  -2.3302559674189243e-06 3.6999999999999999e-04 0.0000000000000000e+00  -2.1116266130581782e-06 3.6999999999999999e-04 0.0000000000000000e+00  -1.9104603166073512e-06 3.6999999999999999e-04 0.0000000000000000e+00  -1.7277366178132236e-06 3.6999999999999999e-04 0.0000000000000000e+00  -1.5621286091841328e-06 3.6999999999999999e-04 0.0000000000000000e+00  -1.4129015009927114e-06 3.6999999999999999e-04 0.0000000000000000e+00  -1.2793490277314208e-06 3.6999999999999999e-04 0.0000000000000000e+00  -1.1624231856648677e-06 3.6999999999999999e-04 0.0000000000000000e+00  -1.0602186154705993e-06 3.6999999999999999e-04 0.0000000000000000e+00  -9.7177172952585774e-07 3.6999999999999999e-04 0.0000000000000000e+00  -8.9471682064553420e-07 3.6999999999999999e-04 0.0000000000000000e+00  -8.2989935600813372e-07 3.6999999999999999e-04 0.0000000000000000e+00  -7.7429418337432283e-07 3.6999999999999999e-04 0.0000000000000000e+00  -7.2833897654416257e-07 3.6999999999999999e-04 0.0000000000000000e+00  -6.8926133233236899e-07 3.6999999999999999e-04 0.0000000000000000e+00  -6.5685387939280856e-07 3.6999999999999999e-04 0.0000000000000000e+00  -6.2944090082457205e-07 3.6999999999999999e-04 0.0000000000000000e+00  -6.0568217793149591e-07 3.6999999999999999e-04 0.0000000000000000e+00  -5.8460189362534692e-07 3.6999999999999999e-04 0.0000000000000000e+00  -5.6489551617996392e-07 3.6999999999999999e-04 0.0000000000000000e+00  -5.4484021682002534e-07 3.6999999999999999e-04 0.0000000000000000e+00  -5.2396031956168823e-07 3.6999999999999999e-04 0.0000000000000000e+00  -5.0115483772391844e-07 3.6999999999999999e-04 0.0000000000000000e+00  -4.7553141904420494e-07 3.6999999999999999e-04 0.0000000000000000e+00  -4.4484497930784614e-07 3.6999999999999999e-04 0.0000000000000000e+00  -4.0980622796426513e-07 3.6999999999999999e-04 0.0000000000000000e+00  -3.6914024394490122e-07 3.6999999999999999e-04 0.0000000000000000e+00  -3.2091482783153258e-07 3.6999999999999999e-04 0.0000000000000000e+00  -2.6522717746644053e-07 3.6999999999999999e-04 0.0000000000000000e+00  -2.0100602798527117e-07 3.6999999999999999e-04 0.0000000000000000e+00  -1.2706959582129061e-07 3.6999999999999999e-04 0.0000000000000000e+00  -4.4086606029267321e-08 3.6999999999999999e-04 0.0000000000000000e+00  4.8720059075400316e-08 3.6999999999999999e-04 0.0000000000000000e+00  1.5185910078470104e-07 3.6999999999999999e-04 0.0000000000000000e+00  2.6631571178754934e-07 3.6999999999999999e-04 0.0000000000000000e+00  3.9195111483678684e-07 3.6999999999999999e-04 0.0000000000000000e+00  5.2929357788454777e-07 3.6999999999999999e-04 0.0000000000000000e+00  6.7892217493337148e-07 3.6999999999999999e-04 0.0000000000000000e+00  8.4054900260509538e-07 3.6999999999999999e-04 0.0000000000000000e+00  1.0157879958975325e-06 3.6999999999999999e-04 0.0000000000000000e+00  1.2040575159226262e-06 3.6999999999999999e-04 0.0000000000000000e+00  1.4043262504479798e-06 3.6999999999999999e-04 0.0000000000000000e+00  1.6191869502902382e-06 3.6999999999999999e-04 0.0000000000000000e+00  1.8475330514210421e-06 3.6999999999999999e-04 0.0000000000000000e+00  2.0901039412900460e-06 3.6999999999999999e-04 0.0000000000000000e+00  2.3463016358073935e-06 3.6999999999999999e-04 0.0000000000000000e+00  2.6145374853756337e-06 3.6999999999999999e-04 0.0000000000000000e+00  2.9006750685258298e-06 3.6999999999999999e-04 0.0000000000000000e+00  3.1916802575721099e-06 3.6999999999999999e-04 0.0000000000000000e+00  3.4944305109549152e-06 3.6999999999999999e-04 0.0000000000000000e+00  3.8061543569643386e-06 3.6999999999999999e-04 0.0000000000000000e+00  4.1246930650242211e-06 3.6999999999999999e-04 0.0000000000000000e+00  4.4418896804182365e-06 3.6999999999999999e-04 0.0000000000000000e+00  4.7591949231768092e-06 3.6999999999999999e-04 0.0000000000000000e+00  5.0698738419345736e-06 3.6999999999999999e-04 0.0000000000000000e+00  5.3703814781052068e-06 3.6999999999999999e-04 0.0000000000000000e+00  5.6569120549317336e-06 3.6999999999999999e-04 0.0000000000000000e+00  5.9117691817337717e-06 3.6999999999999999e-04 0.0000000000000000e+00  6.1359052578844937e-06 3.6999999999999999e-04 0.0000000000000000e+00  6.3141436019580691e-06 3.6999999999999999e-04 0.0000000000000000e+00  6.4600649581202909e-06 3.6999999999999999e-04 0.0000000000000000e+00  6.5418439655167213e-06 3.6999999999999999e-04 0.0000000000000000e+00  6.5532793302689539e-06 3.6999999999999999e-04 0.0000000000000000e+00  6.4992294011088994e-06 3.6999999999999999e-04 0.0000000000000000e+00  6.3481680351237048e-06 3.6999999999999999e-04 0.0000000000000000e+00  6.1309550460373525e-06 3.6999999999999999e-04 0.0000000000000000e+00  5.8086656299334410e-06 3.6999999999999999e-04 0.0000000000000000e+00  5.3602686326199687e-06 3.6999999999999999e-04 0.0000000000000000e+00  4.7908316528615782e-06 3.6999999999999999e-04 0.0000000000000000e+00  4.1131896049403106e-06 3.6999999999999999e-04 0.0000000000000000e+00  3.3055107819327616e-06 3.6999999999999999e-04 0.0000000000000000e+00  2.3683403232060070e-06 3.6999999999999999e-04 0.0000000000000000e+00  1.3130160186575039e-06 3.6999999999999999e-04 0.0000000000000000e+00  1.2842268215300461e-07 3.6999999999999999e-04 0.0000000000000000e+00  -1.1323477117514261e-06 3.6999999999999999e-04 0.0000000000000000e+00  -2.5410018959263653e-06 3.6999999999999999e-04 0.0000000000000000e+00  -4.0490970015024772e-06 3.6999999999999999e-04 0.0000000000000000e+00  -5.6508687738019239e-06 3.6999999999999999e-04 0.0000000000000000e+00  -7.3429126316444068e-06 3.6999999999999999e-04 0.0000000000000000e+00  -9.1034258936854874e-06 3.6999999999999999e-04 0.0000000000000000e+00  -1.0943256440610902e-05 3.6999999999999999e-04 0.0000000000000000e+00  -1.2830572547398477e-05 3.6999999999999999e-04 0.0000000000000000e+00  -1.4777054888899850e-05 3.6999999999999999e-04 0.0000000000000000e+00  -1.6758652192531763e-05 3.6999999999999999e-04 0.0000000000000000e+00  -1.8771135837344171e-05 3.6999999999999999e-04 0.0000000000000000e+00  -2.0808021054313035e-05 3.6999999999999999e-04 0.0000000000000000e+00  -2.2869499906880818e-05 3.6999999999999999e-04 0.0000000000000000e+00  -2.4940973812060014e-05 3.6999999999999999e-04 0.0000000000000000e+00  -2.7024528802162236e-05 3.6999999999999999e-04 0.0000000000000000e+00  -2.9113370499395284e-05 3.6999999999999999e-04 0.0000000000000000e+00  -3.1206123699332535e-05 3.6999999999999999e-04 0.0000000000000000e+00  -3.3300891791511320e-05 3.6999999999999999e-04 0.0000000000000000e+00  -3.5395991463031787e-05 3.6999999999999999e-04 0.0000000000000000e+00  -3.7490752193637287e-05 3.6999999999999999e-04 0.0000000000000000e+00  -3.9584341187195412e-05 3.6999999999999999e-04 0.0000000000000000e+00  -4.1677528791685170e-05 3.6999999999999999e-04 0.0000000000000000e+00  -4.3770510588975867e-05 3.6999999999999999e-04 0.0000000000000000e+00  -4.5864145391676759e-05 3.6999999999999999e-04 0.0000000000000000e+00  -4.7957204435870828e-05 3.6999999999999999e-04 0.0000000000000000e+00  -5.0051711450340195e-05 3.6999999999999999e-04 0.0000000000000000e+00  -5.2149397991918012e-05 3.6999999999999999e-04 0.0000000000000000e+00  -5.4250516814348001e-05 3.6999999999999999e-04 0.0000000000000000e+00  -5.6357041685775528e-05 3.6999999999999999e-04 0.0000000000000000e+00  -5.8469317672572559e-05 3.6999999999999999e-04 0.0000000000000000e+00  -6.0587523652280616e-05 3.6999999999999999e-04 0.0000000000000000e+00  -6.2714097912616040e-05 3.6999999999999999e-04 0.0000000000000000e+00  -6.4850116054187599e-05 3.6999999999999999e-04 0.0000000000000000e+00  -6.6996986375923235e-05 3.6999999999999999e-04 0.0000000000000000e+00  -6.9154136229606747e-05 3.6999999999999999e-04 0.0000000000000000e+00  -7.1318057728570782e-05 3.6999999999999999e-04 0.0000000000000000e+00  -7.3496769954088336e-05 3.6999999999999999e-04 0.0000000000000000e+00  -7.5688739354951934e-05 3.6999999999999999e-04 0.0000000000000000e+00  -7.7896400657599533e-05 3.6999999999999999e-04 0.0000000000000000e+00  -8.0109762987777276e-05 3.6999999999999999e-04 0.0000000000000000e+00  -8.2341344254309131e-05 3.6999999999999999e-04 0.0000000000000000e+00  -8.4589833062833763e-05 3.6999999999999999e-04 0.0000000000000000e+00  -8.6846321724269921e-05 3.6999999999999999e-04 0.0000000000000000e+00  -8.9119460295857865e-05 3.6999999999999999e-04 0.0000000000000000e+00  -9.1407075451640542e-05 3.6999999999999999e-04 0.0000000000000000e+00  -9.3709741679163134e-05 3.6999999999999999e-04 0.0000000000000000e+00  -9.6024047345614558e-05 3.6999999999999999e-04 0.0000000000000000e+00  -9.8348547620517442e-05 3.6999999999999999e-04 0.0000000000000000e+00  -1.0068574750965776e-04 3.6999999999999999e-04 0.0000000000000000e+00  -1.0303661375303418e-04 3.6999999999999999e-04 0.0000000000000000e+00  -1.0539636291078534e-04 3.6999999999999999e-04 0.0000000000000000e+00  -1.0776466392875025e-04 3.6999999999999999e-04 0.0000000000000000e+00  -1.1014152708168220e-04 3.6999999999999999e-04 0.0000000000000000e+00  -1.1252713654248306e-04 3.6999999999999999e-04 0.0000000000000000e+00  -1.1491519975455454e-04 3.6999999999999999e-04 0.0000000000000000e+00  -1.1731105966616478e-04 3.6999999999999999e-04 0.0000000000000000e+00  -1.1970443495447424e-04 3.6999999999999999e-04 0.0000000000000000e+00  -1.2210312717381874e-04 3.6999999999999999e-04 0.0000000000000000e+00  -1.2450195960657384e-04 3.6999999999999999e-04 0.0000000000000000e+00  -1.2689436991710198e-04 3.6999999999999999e-04 0.0000000000000000e+00  -1.2928374563127824e-04 3.6999999999999999e-04 0.0000000000000000e+00  -1.3166798842033104e-04 3.6999999999999999e-04 0.0000000000000000e+00  -1.3404321909221939e-04 3.6999999999999999e-04 0.0000000000000000e+00  -1.3640586144862294e-04 3.6999999999999999e-04 0.0000000000000000e+00  -1.3876366815234636e-04 3.6999999999999999e-04 0.0000000000000000e+00  -1.4110313418382676e-04 3.6999999999999999e-04 0.0000000000000000e+00  -1.4342552928724839e-04 3.6999999999999999e-04 0.0000000000000000e+00  -1.4572930534161854e-04 3.6999999999999999e-04 0.0000000000000000e+00  -1.4800954520815732e-04 3.6999999999999999e-04 0.0000000000000000e+00  -1.5026969009255907e-04 3.6999999999999999e-04 0.0000000000000000e+00  -1.5250952770173349e-04 3.6999999999999999e-04 0.0000000000000000e+00  -1.5471113297039921e-04 3.6999999999999999e-04 0.0000000000000000e+00  -1.5689533072429742e-04 3.6999999999999999e-04 0.0000000000000000e+00  -1.5901226393018688e-04 3.6357764820565670e-04 0.0000000000000000e+00  -1.5886670368173215e-04 3.5715338145839631e-04 0.0000000000000000e+00  -1.5866134323442462e-04 3.5072696578870643e-04 0.0000000000000000e+00  -1.5834388720457350e-04 3.4429797346518289e-04 0.0000000000000000e+00  -1.5794687337707125e-04 3.3787699770543680e-04 0.0000000000000000e+00  -1.5744185005650579e-04 3.3143537948084056e-04 0.0000000000000000e+00  -1.5685824552243770e-04 3.2500591434158753e-04 0.0000000000000000e+00  -1.5618664635496380e-04 3.1855925693584510e-04 0.0000000000000000e+00  -1.5541403158813314e-04 3.1210969406911824e-04 0.0000000000000000e+00  -1.5454633935357829e-04 3.0566611769627624e-04 0.0000000000000000e+00  -1.5358678969002915e-04 2.9919950226977416e-04 0.0000000000000000e+00  -1.5252885441705889e-04 2.9273130262732301e-04 0.0000000000000000e+00  -1.5137806001076293e-04 2.8624584768136675e-04 0.0000000000000000e+00  -1.5012138980401491e-04 2.7976882833091526e-04 0.0000000000000000e+00  -1.4877108422529017e-04 2.7325852791110379e-04 0.0000000000000000e+00  -1.4731419661731895e-04 2.6673082950217405e-04 0.0000000000000000e+00  -1.4575075470568287e-04 2.6020574557549799e-04 0.0000000000000000e+00  -1.4408367538378734e-04 2.5364727573038023e-04 0.0000000000000000e+00  -1.4230251224573991e-04 2.4708819411994816e-04 0.0000000000000000e+00  -1.4041079621025194e-04 2.4050110309964623e-04 0.0000000000000000e+00  -1.3841117435797935e-04 2.3387207818984971e-04 0.0000000000000000e+00  -1.3628543896269084e-04 2.2724863825905196e-04 0.0000000000000000e+00  -1.3404575961063211e-04 2.2057331429762439e-04 0.0000000000000000e+00  -1.3167121106497464e-04 2.1388397972065321e-04 0.0000000000000000e+00  -1.2918385110021876e-04 2.0714529343153989e-04 0.0000000000000000e+00  -1.2655002334926435e-04 2.0039451171421414e-04 0.0000000000000000e+00  -1.2379818532391940e-04 1.9356874979462347e-04 0.0000000000000