<?xml version="1.0"?>
<VTKFile type="UnstructuredGrid"  version="0.1"  >
<UnstructuredGrid>
<Piece  NumberOfPoints="16512" NumberOfCells="32424">
<Points>
<DataArray  type="Float64"  NumberOfComponents="3"  format="ascii">-25 4.9 0  25 4.9 0  25 -4.9 0  -25 -4.9 0  -10 0 0  10 0 0  -24.80000000000034 4.9 0  -24.60000000000068 4.9 0  -24.40000000000101 4.9 0  -24.20000000000135 4.9 0  -24.00000000000169 4.9 0  -23.80000000000203 4.9 0  -23.60000000000237 4.9 0  -23.40000000000271 4.9 0  -23.20000000000304 4.9 0  -23.00000000000338 4.9 0  -22.80000000000372 4.9 0  -22.60000000000406 4.9 0  -22.40000000000439 4.9 0  -22.20000000000473 4.9 0  -22.00000000000507 4.9 0  -21.80000000000541 4.9 0  -21.60000000000575 4.9 0  -21.40000000000608 4.9 0  -21.20000000000642 4.9 0  -21.00000000000676 4.9 0  -20.8000000000071 4.9 0  -20.60000000000744 4.9 0  -20.40000000000777 4.9 0  -20.20000000000811 4.9 0  -20.00000000000845 4.9 0  -19.80000000000879 4.9 0  -19.60000000000912 4.9 0  -19.40000000000946 4.9 0  -19.2000000000098 4.9 0  -19.00000000001039 4.9 0  -18.80000000001108 4.9 0  -18.60000000001231 4.9 0  -18.40000000001371 4.9 0  -18.2000000000154 4.9 0  -18.00000000001716 4.9 0  -17.80000000001892 4.9 0  -17.60000000002067 4.9 0  -17.40000000002243 4.9 0  -17.20000000002419 4.9 0  -17.00000000002595 4.9 0  -16.80000000002771 4.9 0  -16.60000000002947 4.9 0  -16.40000000003123 4.9 0  -16.20000000003299 4.9 0  -16.00000000003472 4.9 0  -15.80000000003612 4.9 0  -15.60000000003748 4.9 0  -15.40000000003853 4.9 0  -15.20000000003958 4.9 0  -15.00000000004063 4.9 0  -14.80000000004168 4.9 0  -14.60000000004273 4.9 0  -14.40000000004377 4.9 0  -14.20000000004482 4.9 0  -14.00000000004587 4.9 0  -13.80000000004692 4.9 0  -13.60000000004797 4.9 0  -13.40000000004902 4.9 0  -13.20000000005007 4.9 0  -13.00000000005111 4.9 0  -12.80000000005216 4.9 0  -12.60000000005321 4.9 0  -12.40000000005426 4.9 0  -12.20000000005531 4.9 0  -12.00000000005636 4.9 0  -11.80000000005741 4.9 0  -11.60000000005846 4.9 0  -11.4000000000595 4.9 0  -11.20000000006055 4.9 0  -11.0000000000616 4.9 0  -10.80000000006265 4.9 0  -10.6000000000637 4.9 0  -10.40000000006475 4.9 0  -10.2000000000658 4.9 0  -10.00000000006684 4.9 0  -9.800000000067891 4.9 0  -9.60000000006894 4.9 0  -9.400000000069989 4.9 0  -9.200000000070727 4.9 0  -9.00000000007142 4.9 0  -8.800000000071787 4.9 0  -8.600000000072125 4.9 0  -8.400000000072467 4.9 0  -8.200000000072805 4.9 0  -8.000000000073143 4.9 0  -7.800000000073481 4.9 0  -7.60000000007382 4.9 0  -7.400000000074154 4.9 0  -7.200000000074493 4.9 0  -7.000000000074831 4.9 0  -6.800000000075173 4.9 0  -6.600000000075511 4.9 0  -6.400000000075849 4.9 0  -6.200000000076187 4.9 0  -6.000000000076525 4.9 0  -5.800000000076867 4.9 0  -5.600000000077205 4.9 0  -5.400000000077544 4.9 0  -5.200000000077882 4.9 0  -5.00000000007822 4.9 0  -4.800000000078558 4.9 0  -4.600000000078897 4.9 0  -4.400000000079235 4.9 0  -4.200000000079573 4.9 0  -4.000000000079908 4.9 0  -3.800000000080246 4.9 0  -3.600000000080588 4.9 0  -3.400000000080926 4.9 0  -3.200000000081264 4.9 0  -3.000000000081606 4.9 0  -2.800000000081944 4.9 0  -2.600000000082282 4.9 0  -2.40000000008262 4.9 0  -2.200000000082959 4.9 0  -2.000000000083297 4.9 0  -1.800000000083635 4.9 0  -1.600000000083973 4.9 0  -1.400000000084312 4.9 0  -1.20000000008465 4.9 0  -1.000000000084988 4.9 0  -0.8000000000853262 4.9 0  -0.6000000000856645 4.9 0  -0.4000000000860027 4.9 0  -0.2000000000863409 4.9 0  -8.667910833537462e-11 4.9 0  0.1999999999129827 4.9 0  0.3999999999126409 4.9 0  0.5999999999123027 4.9 0  0.7999999999119716 4.9 0  0.9999999999116262 4.9 0  1.199999999911295 4.9 0  1.39999999991095 4.9 0  1.599999999910619 4.9 0  1.799999999910273 4.9 0  1.999999999909939 4.9 0  2.199999999909597 4.9 0  2.399999999909262 4.9 0  2.599999999908921 4.9 0  2.799999999908582 4.9 0  2.999999999908244 4.9 0  3.199999999907906 4.9 0  3.399999999907564 4.9 0  3.599999999907226 4.9 0  3.799999999906888 4.9 0  3.999999999906549 4.9 0  4.199999999906218 4.9 0  4.399999999905873 4.9 0  4.599999999905542 4.9 0  4.799999999905197 4.9 0  4.999999999904865 4.9 0  5.19999999990452 4.9 0  5.399999999904182 4.9 0  5.599999999903844 4.9 0  5.799999999903505 4.9 0  5.999999999903167 4.9 0  6.199999999902829 4.9 0  6.399999999902491 4.9 0  6.599999999902153 4.9 0  6.799999999902379 4.9 0  6.999999999902752 4.9 0  7.199999999903724 4.9 0  7.399999999904807 4.9 0  7.59999999990589 4.9 0  7.799999999906966 4.9 0  7.999999999908056 4.9 0  8.199999999909132 4.9 0  8.399999999910214 4.9 0  8.59999999991129 4.9 0  8.79999999991238 4.9 0  8.999999999913456 4.9 0  9.199999999914539 4.9 0  9.399999999915622 4.9 0  9.599999999916704 4.9 0  9.79999999991778 4.9 0  9.99999999991887 4.9 0  10.19999999991995 4.9 0  10.39999999992103 4.9 0  10.59999999992212 4.9 0  10.79999999992319 4.9 0  10.99999999992428 4.9 0  11.19999999992536 4.9 0  11.39999999992644 4.9 0  11.59999999992752 4.9 0  11.7999999999286 4.9 0  11.99999999992968 4.9 0  12.19999999993077 4.9 0  12.39999999993184 4.9 0  12.59999999993293 4.9 0  12.79999999993401 4.9 0  12.99999999993509 4.9 0  13.19999999993617 4.9 0  13.39999999993726 4.9 0  13.59999999993834 4.9 0  13.79999999993942 4.9 0  13.99999999994051 4.9 0  14.19999999994158 4.9 0  14.39999999994266 4.9 0  14.59999999994375 4.9 0  14.79999999994483 4.9 0  14.99999999994591 4.9 0  15.199999999947 4.9 0  15.39999999994807 4.9 0  15.59999999994915 4.9 0  15.79999999995024 4.9 0  15.99999999995132 4.9 0  16.1999999999524 4.9 0  16.39999999995349 4.9 0  16.59999999995456 4.9 0  16.79999999995565 4.9 0  16.99999999995674 4.9 0  17.19999999995781 4.9 0  17.39999999995889 4.9 0  17.59999999995997 4.9 0  17.79999999996106 4.9 0  17.99999999996214 4.9 0  18.19999999996322 4.9 0  18.3999999999643 4.9 0  18.59999999996538 4.9 0  18.79999999996646 4.9 0  18.99999999996755 4.9 0  19.19999999996863 4.9 0  19.39999999996971 4.9 0  19.59999999997079 4.9 0  19.79999999997187 4.9 0  19.99999999997296 4.9 0  20.19999999997404 4.9 0  20.39999999997512 4.9 0  20.5999999999762 4.9 0  20.79999999997728 4.9 0  20.99999999997836 4.9 0  21.19999999997945 4.9 0  21.39999999998052 4.9 0  21.59999999998161 4.9 0  21.79999999998269 4.9 0  21.99999999998377 4.9 0  22.19999999998485 4.9 0  22.39999999998594 4.9 0  22.59999999998701 4.9 0  22.7999999999881 4.9 0  22.99999999998919 4.9 0  23.19999999999026 4.9 0  23.39999999999135 4.9 0  23.59999999999243 4.9 0  23.79999999999351 4.9 0  23.99999999999459 4.9 0  24.19999999999568 4.9 0  24.39999999999675 4.9 0  24.59999999999783 4.9 0  24.79999999999892 4.9 0  25 4.700000000000415 0  25 4.500000000000868 0  25 4.300000000001562 0  25 4.100000000001831 0  25 3.900000000002072 0  25 3.700000000002459 0  25 3.500000000003038 0  25 3.300000000003653 0  25 3.100000000004294 0  25 2.900000000004838 0  25 2.700000000005293 0  25 2.500000000005957 0  25 2.300000000006508 0  25 2.100000000007153 0  25 1.900000000007722 0  25 1.700000000008417 0  25 1.500000000008938 0  25 1.30000000000963 0  25 1.100000000010154 0  25 0.9000000000108268 0  25 0.7000000000114559 0  25 0.5000000000119762 0  25 0.3000000000126564 0  25 0.1000000000131926 0  25 -0.09999999998679243 0  25 -0.2999999999874587 0  25 -0.4999999999878586 0  25 -0.6999999999884441 0  25 -0.899999999988804 0  25 -1.099999999989427 0  25 -1.299999999989749 0  25 -1.499999999990411 0  25 -1.69999999999073 0  25 -1.899999999991396 0  25 -2.099999999991715 0  25 -2.299999999992381 0  25 -2.499999999993047 0  25 -2.699999999993714 0  25 -2.899999999994227 0  25 -3.099999999994698 0  25 -3.299999999994673 0  25 -3.499999999995339 0  25 -3.699999999996004 0  25 -3.89999999999667 0  25 -4.099999999997335 0  25 -4.299999999998002 0  25 -4.499999999998668 0  25 -4.699999999999335 0  24.80000000000034 -4.9 0  24.60000000000068 -4.9 0  24.40000000000101 -4.9 0  24.20000000000135 -4.9 0  24.00000000000169 -4.9 0  23.80000000000203 -4.9 0  23.60000000000237 -4.9 0  23.40000000000271 -4.9 0  23.20000000000304 -4.9 0  23.00000000000338 -4.9 0  22.80000000000372 -4.9 0  22.60000000000406 -4.9 0  22.40000000000439 -4.9 0  22.20000000000473 -4.9 0  22.00000000000507 -4.9 0  21.80000000000541 -4.9 0  21.60000000000575 -4.9 0  21.40000000000608 -4.9 0  21.20000000000642 -4.9 0  21.00000000000676 -4.9 0  20.8000000000071 -4.9 0  20.60000000000744 -4.9 0  20.40000000000777 -4.9 0  20.20000000000811 -4.9 0  20.00000000000845 -4.9 0  19.80000000000879 -4.9 0  19.60000000000912 -4.9 0  19.40000000000946 -4.9 0  19.2000000000098 -4.9 0  19.00000000001039 -4.9 0  18.80000000001108 -4.9 0  18.60000000001231 -4.9 0  18.40000000001371 -4.9 0  18.2000000000154 -4.9 0  18.00000000001716 -4.9 0  17.80000000001892 -4.9 0  17.60000000002067 -4.9 0  17.40000000002243 -4.9 0  17.20000000002419 -4.9 0  17.00000000002595 -4.9 0  16.80000000002771 -4.9 0  16.60000000002947 -4.9 0  16.40000000003123 -4.9 0  16.20000000003299 -4.9 0  16.00000000003472 -4.9 0  15.80000000003612 -4.9 0  15.60000000003748 -4.9 0  15.40000000003853 -4.9 0  15.20000000003958 -4.9 0  15.00000000004063 -4.9 0  14.80000000004168 -4.9 0  14.60000000004273 -4.9 0  14.40000000004377 -4.9 0  14.20000000004482 -4.9 0  14.00000000004587 -4.9 0  13.80000000004692 -4.9 0  13.60000000004797 -4.9 0  13.40000000004902 -4.9 0  13.20000000005007 -4.9 0  13.00000000005111 -4.9 0  12.80000000005216 -4.9 0  12.60000000005321 -4.9 0  12.40000000005426 -4.9 0  12.20000000005531 -4.9 0  12.00000000005636 -4.9 0  11.80000000005741 -4.9 0  11.60000000005846 -4.9 0  11.4000000000595 -4.9 0  11.20000000006055 -4.9 0  11.0000000000616 -4.9 0  10.80000000006265 -4.9 0  10.6000000000637 -4.9 0  10.40000000006475 -4.9 0  10.2000000000658 -4.9 0  10.00000000006684 -4.9 0  9.800000000067891 -4.9 0  9.60000000006894 -4.9 0  9.400000000069989 -4.9 0  9.200000000070727 -4.9 0  9.00000000007142 -4.9 0  8.800000000071787 -4.9 0  8.600000000072125 -4.9 0  8.400000000072467 -4.9 0  8.200000000072805 -4.9 0  8.000000000073143 -4.9 
[...]
<PointData  Vectors="f_7"> 
<DataArray  type="Float64"  Name="f_7"  NumberOfComponents="3" format="ascii">1.7553134953647042e-04 4.1000000000000005e-04 0.0000000000000000e+00  -1.7568954243651677e-04 4.1000000000000005e-04 0.0000000000000000e+00  0.0000000000000000e+00 0.0000000000000000e+00 0.0000000000000000e+00  0.0000000000000000e+00 0.0000000000000000e+00 0.0000000000000000e+00  3.1212998548979436e-05 2.0543982983219316e-04 0.0000000000000000e+00  -3.0564759731746827e-05 2.0199476208393797e-04 0.0000000000000000e+00  1.7312549650833214e-04 4.1000000000000005e-04 0.0000000000000000e+00  1.7070197420502101e-04 4.1000000000000005e-04 0.0000000000000000e+00  1.6826354128996618e-04 4.1000000000000005e-04 0.0000000000000000e+00  1.6577397441127297e-04 4.1000000000000005e-04 0.0000000000000000e+00  1.6327322714798257e-04 4.1000000000000005e-04 0.0000000000000000e+00  1.6073552812710762e-04 4.1000000000000005e-04 0.0000000000000000e+00  1.5818297308306463e-04 4.1000000000000005e-04 0.0000000000000000e+00  1.5560073417976005e-04 4.1000000000000005e-04 0.0000000000000000e+00  1.5301268931500371e-04 4.1000000000000005e-04 0.0000000000000000e+00  1.5039998524162533e-04 4.1000000000000005e-04 0.0000000000000000e+00  1.4777427344154419e-04 4.1000000000000005e-04 0.0000000000000000e+00  1.4514865500348510e-04 4.1000000000000005e-04 0.0000000000000000e+00  1.4249441668566355e-04 4.1000000000000005e-04 0.0000000000000000e+00  1.3984372323543967e-04 4.1000000000000005e-04 0.0000000000000000e+00  1.3719140118964641e-04 4.1000000000000005e-04 0.0000000000000000e+00  1.3453964389663979e-04 4.1000000000000005e-04 0.0000000000000000e+00  1.3186990416670462e-04 4.1000000000000005e-04 0.0000000000000000e+00  1.2921072508291053e-04 4.1000000000000005e-04 0.0000000000000000e+00  1.2656028291989951e-04 4.1000000000000005e-04 0.0000000000000000e+00  1.2390114263040702e-04 4.1000000000000005e-04 0.0000000000000000e+00  1.2125297119659337e-04 4.1000000000000005e-04 0.0000000000000000e+00  1.1861333262025642e-04 4.1000000000000005e-04 0.0000000000000000e+00  1.1598663965408480e-04 4.1000000000000005e-04 0.0000000000000000e+00  1.1337432465465791e-04 4.1000000000000005e-04 0.0000000000000000e+00  1.1075639272177002e-04 4.1000000000000005e-04 0.0000000000000000e+00  1.0815686633022651e-04 4.1000000000000005e-04 0.0000000000000000e+00  1.0557418981423681e-04 4.1000000000000005e-04 0.0000000000000000e+00  1.0300236904985040e-04 4.1000000000000005e-04 0.0000000000000000e+00  1.0044519792926546e-04 4.1000000000000005e-04 0.0000000000000000e+00  9.7904261303580461e-05 4.1000000000000005e-04 0.0000000000000000e+00  9.5375345471502589e-05 4.1000000000000005e-04 0.0000000000000000e+00  9.2862486138297620e-05 4.1000000000000005e-04 0.0000000000000000e+00  9.0365648049349297e-05 4.1000000000000005e-04 0.0000000000000000e+00  8.7887379431536328e-05 4.1000000000000005e-04 0.0000000000000000e+00  8.5413906983424688e-05 4.1000000000000005e-04 0.0000000000000000e+00  8.2960452011974215e-05 4.1000000000000005e-04 0.0000000000000000e+00  8.0519359996940074e-05 4.1000000000000005e-04 0.0000000000000000e+00  7.8094585226647689e-05 4.1000000000000005e-04 0.0000000000000000e+00  7.5677511621726783e-05 4.1000000000000005e-04 0.0000000000000000e+00  7.3274416384761878e-05 4.1000000000000005e-04 0.0000000000000000e+00  7.0883904955931106e-05 4.1000000000000005e-04 0.0000000000000000e+00  6.8503045733904597e-05 4.1000000000000005e-04 0.0000000000000000e+00  6.6130704845059304e-05 4.1000000000000005e-04 0.0000000000000000e+00  6.3766033277898041e-05 4.1000000000000005e-04 0.0000000000000000e+00  6.1407357788204178e-05 4.1000000000000005e-04 0.0000000000000000e+00  5.9054652335119733e-05 4.1000000000000005e-04 0.0000000000000000e+00  5.6706706842640451e-05 4.1000000000000005e-04 0.0000000000000000e+00  5.4361578760579159e-05 4.1000000000000005e-04 0.0000000000000000e+00  5.2018714964283600e-05 4.1000000000000005e-04 0.0000000000000000e+00  4.9677724708486573e-05 4.1000000000000005e-04 0.0000000000000000e+00  4.7336212259628008e-05 4.1000000000000005e-04 0.0000000000000000e+00  4.4993032554321795e-05 4.1000000000000005e-04 0.0000000000000000e+00  4.2649468723297993e-05 4.1000000000000005e-04 0.0000000000000000e+00  4.0302448491065813e-05 4.1000000000000005e-04 0.0000000000000000e+00  3.7956385036974913e-05 4.1000000000000005e-04 0.0000000000000000e+00  3.5608526136357323e-05 4.1000000000000005e-04 0.0000000000000000e+00  3.3259876170277377e-05 4.1000000000000005e-04 0.0000000000000000e+00  3.0911472953541473e-05 4.1000000000000005e-04 0.0000000000000000e+00  2.8567778458929045e-05 4.1000000000000005e-04 0.0000000000000000e+00  2.6228212160736865e-05 4.1000000000000005e-04 0.0000000000000000e+00  2.3906616167654342e-05 4.1000000000000005e-04 0.0000000000000000e+00  2.1598083169998841e-05 4.1000000000000005e-04 0.0000000000000000e+00  1.9310495724528819e-05 4.1000000000000005e-04 0.0000000000000000e+00  1.7047461997898923e-05 4.1000000000000005e-04 0.0000000000000000e+00  1.4819071855710009e-05 4.1000000000000005e-04 0.0000000000000000e+00  1.2642348433915172e-05 4.1000000000000005e-04 0.0000000000000000e+00  1.0522073399134806e-05 4.1000000000000005e-04 0.0000000000000000e+00  8.4822727640261631e-06 4.1000000000000005e-04 0.0000000000000000e+00  6.5066041456505177e-06 4.1000000000000005e-04 0.0000000000000000e+00  4.6001580273186012e-06 4.1000000000000005e-04 0.0000000000000000e+00  2.8035273674501415e-06 4.1000000000000005e-04 0.0000000000000000e+00  1.1354189135643673e-06 4.1000000000000005e-04 0.0000000000000000e+00  -4.1711705127002602e-07 4.1000000000000005e-04 0.0000000000000000e+00  -1.8662222805570419e-06 4.1000000000000005e-04 0.0000000000000000e+00  -3.1540248100606037e-06 4.1000000000000005e-04 0.0000000000000000e+00  -4.3245541125298721e-06 4.1000000000000005e-04 0.0000000000000000e+00  -5.3497541076844785e-06 4.1000000000000005e-04 0.0000000000000000e+00  -6.2205249974749703e-06 4.1000000000000005e-04 0.0000000000000000e+00  -6.9585483419768732e-06 4.1000000000000005e-04 0.0000000000000000e+00  -7.5704416904747296e-06 4.1000000000000005e-04 0.0000000000000000e+00  -8.0492847604796281e-06 4.1000000000000005e-04 0.0000000000000000e+00  -8.4008311102503292e-06 4.1000000000000005e-04 0.0000000000000000e+00  -8.6323176406483435e-06 4.1000000000000005e-04 0.0000000000000000e+00  -8.7562608289194662e-06 4.1000000000000005e-04 0.0000000000000000e+00  -8.7959389651520226e-06 4.1000000000000005e-04 0.0000000000000000e+00  -8.7563415354234342e-06 4.1000000000000005e-04 0.0000000000000000e+00  -8.6322303140929599e-06 4.1000000000000005e-04 0.0000000000000000e+00  -8.4387965281146769e-06 4.1000000000000005e-04 0.0000000000000000e+00  -8.2034092805869717e-06 4.1000000000000005e-04 0.0000000000000000e+00  -7.9251954641763197e-06 4.1000000000000005e-04 0.0000000000000000e+00  -7.6132916959690375e-06 4.1000000000000005e-04 0.0000000000000000e+00  -7.2647791213248078e-06 4.1000000000000005e-04 0.0000000000000000e+00  -6.9020380315226673e-06 4.1000000000000005e-04 0.0000000000000000e+00  -6.5270048889445200e-06 4.1000000000000005e-04 0.0000000000000000e+00  -6.1479764702292120e-06 4.1000000000000005e-04 0.0000000000000000e+00  -5.7616329773504613e-06 4.1000000000000005e-04 0.0000000000000000e+00  -5.3816824724443912e-06 4.1000000000000005e-04 0.0000000000000000e+00  -5.0096136680640978e-06 4.1000000000000005e-04 0.0000000000000000e+00  -4.6470653921193027e-06 4.1000000000000005e-04 0.0000000000000000e+00  -4.2971225643508190e-06 4.1000000000000005e-04 0.0000000000000000e+00  -3.9629039592142437e-06 4.1000000000000005e-04 0.0000000000000000e+00  -3.6467387885926624e-06 4.1000000000000005e-04 0.0000000000000000e+00  -3.3440505549178884e-06 4.1000000000000005e-04 0.0000000000000000e+00  -3.0618871522523250e-06 4.1000000000000005e-04 0.0000000000000000e+00  -2.7994354483021655e-06 4.1000000000000005e-04 0.0000000000000000e+00  -2.5578764024107905e-06 4.1000000000000005e-04 0.0000000000000000e+00  -2.3358153307519858e-06 4.1000000000000005e-04 0.0000000000000000e+00  -2.1323823035001196e-06 4.1000000000000005e-04 0.0000000000000000e+00  -1.9469345631275908e-06 4.1000000000000005e-04 0.0000000000000000e+00  -1.7805877997810777e-06 4.1000000000000005e-04 0.0000000000000000e+00  -1.6312091374932842e-06 4.1000000000000005e-04 0.0000000000000000e+00  -1.4977577065742718e-06 4.1000000000000005e-04 0.0000000000000000e+00  -1.3775008950236865e-06 4.1000000000000005e-04 0.0000000000000000e+00  -1.2715104989945306e-06 4.1000000000000005e-04 0.0000000000000000e+00  -1.1762990236570126e-06 4.1000000000000005e-04 0.0000000000000000e+00  -1.0924120598198620e-06 4.1000000000000005e-04 0.0000000000000000e+00  -1.0166417000525796e-06 4.1000000000000005e-04 0.0000000000000000e+00  -9.4877540974533158e-07 4.1000000000000005e-04 0.0000000000000000e+00  -8.8686403349881919e-07 4.1000000000000005e-04 0.0000000000000000e+00  -8.2935524601310553e-07 4.1000000000000005e-04 0.0000000000000000e+00  -7.7510998665056981e-07 4.1000000000000005e-04 0.0000000000000000e+00  -7.2260196501174137e-07 4.1000000000000005e-04 0.0000000000000000e+00  -6.6983438826993843e-07 4.1000000000000005e-04 0.0000000000000000e+00  -6.1619874305426285e-07 4.1000000000000005e-04 0.0000000000000000e+00  -5.6042438584081764e-07 4.1000000000000005e-04 0.0000000000000000e+00  -5.0145775844759853e-07 4.1000000000000005e-04 0.0000000000000000e+00  -4.3667745342693541e-07 4.1000000000000005e-04 0.0000000000000000e+00  -3.6687726343291874e-07 4.1000000000000005e-04 0.0000000000000000e+00  -2.9056217587688210e-07 4.1000000000000005e-04 0.0000000000000000e+00  -2.0550054793647251e-07 4.1000000000000005e-04 0.0000000000000000e+00  -1.1176717697128322e-07 4.1000000000000005e-04 0.0000000000000000e+00  -8.1153920299091977e-09 4.1000000000000005e-04 0.0000000000000000e+00  1.0683228988185383e-07 4.1000000000000005e-04 0.0000000000000000e+00  2.3231063632303999e-07 4.1000000000000005e-04 0.0000000000000000e+00  3.6918940603820733e-07 4.1000000000000005e-04 0.0000000000000000e+00  5.1808214765226756e-07 4.1000000000000005e-04 0.0000000000000000e+00  6.8011262517152810e-07 4.1000000000000005e-04 0.0000000000000000e+00  8.5510846313587485e-07 4.1000000000000005e-04 0.0000000000000000e+00  1.0436494888180627e-06 4.1000000000000005e-04 0.0000000000000000e+00  1.2463860909165070e-06 4.1000000000000005e-04 0.0000000000000000e+00  1.4629256718076868e-06 4.1000000000000005e-04 0.0000000000000000e+00  1.6951169169303874e-06 4.1000000000000005e-04 0.0000000000000000e+00  1.9422645485212422e-06 4.1000000000000005e-04 0.0000000000000000e+00  2.2030257214505685e-06 4.1000000000000005e-04 0.0000000000000000e+00  2.4804366580861236e-06 4.1000000000000005e-04 0.0000000000000000e+00  2.7731769194446087e-06 4.1000000000000005e-04 0.0000000000000000e+00  3.0818959949128442e-06 4.1000000000000005e-04 0.0000000000000000e+00  3.4059303451421556e-06 4.1000000000000005e-04 0.0000000000000000e+00  3.7434058242771894e-06 4.1000000000000005e-04 0.0000000000000000e+00  4.1009240351511920e-06 4.1000000000000005e-04 0.0000000000000000e+00  4.4634452597496880e-06 4.1000000000000005e-04 0.0000000000000000e+00  4.8387825273215066e-06 4.1000000000000005e-04 0.0000000000000000e+00  5.2237362466417901e-06 4.1000000000000005e-04 0.0000000000000000e+00  5.6158786480915028e-06 4.1000000000000005e-04 0.0000000000000000e+00  6.0055060449325899e-06 4.1000000000000005e-04 0.0000000000000000e+00  6.3945218545853627e-06 4.1000000000000005e-04 0.0000000000000000e+00  6.7750960920553650e-06 4.1000000000000005e-04 0.0000000000000000e+00  7.1431469859141111e-06 4.1000000000000005e-04 0.0000000000000000e+00  7.4943412197045401e-06 4.1000000000000005e-04 0.0000000000000000e+00  7.8083625614194927e-06 4.1000000000000005e-04 0.0000000000000000e+00  8.0863927309294322e-06 4.1000000000000005e-04 0.0000000000000000e+00  8.3111277568903267e-06 4.1000000000000005e-04 0.0000000000000000e+00  8.4984473847157392e-06 4.1000000000000005e-04 0.0000000000000000e+00  8.6117976923341477e-06 4.1000000000000005e-04 0.0000000000000000e+00  8.6443050090655699e-06 4.1000000000000005e-04 0.0000000000000000e+00  8.6017545143957333e-06 4.1000000000000005e-04 0.0000000000000000e+00  8.4482419540092024e-06 4.1000000000000005e-04 0.0000000000000000e+00  8.2192500242469425e-06 4.1000000000000005e-04 0.0000000000000000e+00  7.8704707289412416e-06 4.1000000000000005e-04 0.0000000000000000e+00  7.3782479375058062e-06 4.1000000000000005e-04 0.0000000000000000e+00  6.7483719872852754e-06 4.1000000000000005e-04 0.0000000000000000e+00  5.9958516994392364e-06 4.1000000000000005e-04 0.0000000000000000e+00  5.0960015265592753e-06 4.1000000000000005e-04 0.0000000000000000e+00  4.0496059109522063e-06 4.1000000000000005e-04 0.0000000000000000e+00  2.8697591678779791e-06 4.1000000000000005e-04 0.0000000000000000e+00  1.5437842848582927e-06 4.1000000000000005e-04 0.0000000000000000e+00  1.3214414327821185e-07 4.1000000000000005e-04 0.0000000000000000e+00  -1.4465814595541495e-06 4.1000000000000005e-04 0.0000000000000000e+00  -3.1371672190849481e-06 4.1000000000000005e-04 0.0000000000000000e+00  -4.9330921409391809e-06 4.1000000000000005e-04 0.0000000000000000e+00  -6.8304179364725933e-06 4.1000000000000005e-04 0.0000000000000000e+00  -8.8044114921208467e-06 4.1000000000000005e-04 0.0000000000000000e+00  -1.0867508494843164e-05 4.1000000000000005e-04 0.0000000000000000e+00  -1.2983488892085158e-05 4.1000000000000005e-04 0.0000000000000000e+00  -1.5165586830278199e-05 4.1000000000000005e-04 0.0000000000000000e+00  -1.7386652671143160e-05 4.1000000000000005e-04 0.0000000000000000e+00  -1.9641871170413193e-05 4.1000000000000005e-04 0.0000000000000000e+00  -2.1923852812959286e-05 4.1000000000000005e-04 0.0000000000000000e+00  -2.4232958032895129e-05 4.1000000000000005e-04 0.0000000000000000e+00  -2.6552549021605392e-05 4.1000000000000005e-04 0.0000000000000000e+00  -2.8885029348137055e-05 4.1000000000000005e-04 0.0000000000000000e+00  -3.1222747700278747e-05 4.1000000000000005e-04 0.0000000000000000e+00  -3.3564120382374776e-05 4.1000000000000005e-04 0.0000000000000000e+00  -3.5906993894911811e-05 4.1000000000000005e-04 0.0000000000000000e+00  -3.8249514260702421e-05 4.1000000000000005e-04 0.0000000000000000e+00  -4.0590888656017360e-05 4.1000000000000005e-04 0.0000000000000000e+00  -4.2930162740237821e-05 4.1000000000000005e-04 0.0000000000000000e+00  -4.5268360020364426e-05 4.1000000000000005e-04 0.0000000000000000e+00  -4.7605481459742966e-05 4.1000000000000005e-04 0.0000000000000000e+00  -4.9942483189082120e-05 4.1000000000000005e-04 0.0000000000000000e+00  -5.2278295438759655e-05 4.1000000000000005e-04 0.0000000000000000e+00  -5.4614897401014396e-05 4.1000000000000005e-04 0.0000000000000000e+00  -5.6954366589013849e-05 4.1000000000000005e-04 0.0000000000000000e+00  -5.9296960595829459e-05 4.1000000000000005e-04 0.0000000000000000e+00  -6.1644878556456475e-05 4.1000000000000005e-04 0.0000000000000000e+00  -6.3998536997349195e-05 4.1000000000000005e-04 0.0000000000000000e+00  -6.6358136969379920e-05 4.1000000000000005e-04 0.0000000000000000e+00  -6.8726444173908123e-05 4.1000000000000005e-04 0.0000000000000000e+00  -7.1104643532543296e-05 4.1000000000000005e-04 0.0000000000000000e+00  -7.3494306391275440e-05 4.1000000000000005e-04 0.0000000000000000e+00  -7.5894845847209144e-05 4.1000000000000005e-04 0.0000000000000000e+00  -7.8302467853146046e-05 4.1000000000000005e-04 0.0000000000000000e+00  -8.0725935580772086e-05 4.1000000000000005e-04 0.0000000000000000e+00  -8.3163642720302289e-05 4.1000000000000005e-04 0.0000000000000000e+00  -8.5618259595666814e-05 4.1000000000000005e-04 0.0000000000000000e+00  -8.8078867088249392e-05 4.1000000000000005e-04 0.0000000000000000e+00  -9.0559190574092489e-05 4.1000000000000005e-04 0.0000000000000000e+00  -9.3057810453772222e-05 4.1000000000000005e-04 0.0000000000000000e+00  -9.5564969060957992e-05 4.1000000000000005e-04 0.0000000000000000e+00  -9.8090196127396731e-05 4.1000000000000005e-04 0.0000000000000000e+00  -1.0063111970296464e-04 4.1000000000000005e-04 0.0000000000000000e+00  -1.0318838134423302e-04 4.1000000000000005e-04 0.0000000000000000e+00  -1.0575822250001521e-04 4.1000000000000005e-04 0.0000000000000000e+00  -1.0833904193873294e-04 4.1000000000000005e-04 0.0000000000000000e+00  -1.1093365338714124e-04 4.1000000000000005e-04 0.0000000000000000e+00  -1.1354312071434025e-04 4.1000000000000005e-04 0.0000000000000000e+00  -1.1616215048457394e-04 4.1000000000000005e-04 0.0000000000000000e+00  -1.1879041001884931e-04 4.1000000000000005e-04 0.0000000000000000e+00  -1.2142790475773606e-04 4.1000000000000005e-04 0.0000000000000000e+00  -1.2407486817951562e-04 4.1000000000000005e-04 0.0000000000000000e+00  -1.2672434513748832e-04 4.1000000000000005e-04 0.0000000000000000e+00  -1.2938223620966881e-04 4.1000000000000005e-04 0.0000000000000000e+00  -1.3203722661881090e-04 4.1000000000000005e-04 0.0000000000000000e+00  -1.3469790964116312e-04 4.1000000000000005e-04 0.0000000000000000e+00  -1.3735858720936942e-04 4.1000000000000005e-04 0.0000000000000000e+00  -1.4001202294864045e-04 4.1000000000000005e-04 0.0000000000000000e+00  -1.4266196759229389e-04 4.1000000000000005e-04 0.0000000000000000e+00  -1.4530611591266046e-04 4.1000000000000005e-04 0.0000000000000000e+00  -1.4794019219581284e-04 4.1000000000000005e-04 0.0000000000000000e+00  -1.5056025710321518e-04 4.1000000000000005e-04 0.0000000000000000e+00  -1.5317488195914792e-04 4.1000000000000005e-04 0.0000000000000000e+00  -1.5576917002183864e-04 4.1000000000000005e-04 0.0000000000000000e+00  -1.5834453695292604e-04 4.1000000000000005e-04 0.0000000000000000e+00  -1.6089928615649866e-04 4.1000000000000005e-04 0.0000000000000000e+00  -1.6342801118362970e-04 4.1000000000000005e-04 0.0000000000000000e+00  -1.6593452038244952e-04 4.1000000000000005e-04 0.0000000000000000e+00  -1.6841858686977553e-04 4.1000000000000005e-04 0.0000000000000000e+00  -1.7086049076134855e-04 4.1000000000000005e-04 0.0000000000000000e+00  -1.7328318763749543e-04 4.1000000000000005e-04 0.0000000000000000e+00  -1.7563178642608963e-04 4.0287543124529888e-04 0.0000000000000000e+00  -1.7547148549981013e-04 3.9574877180847230e-04 0.0000000000000000e+00  -1.7524533473930971e-04 3.8861977392696720e-04 0.0000000000000000e+00  -1.7489571982062761e-04 3.8148797819282748e-04 0.0000000000000000e+00  -1.7445847753034093e-04 3.7436507678606501e-04 0.0000000000000000e+00  -1.7390227212857510e-04 3.6721949656463512e-04 0.0000000000000000e+00  -1.7325950324291155e-04 3.6008738980814018e-04 0.0000000000000000e+00  -1.7251978292285723e-04 3.5293644594005749e-04 0.0000000000000000e+00  -1.7166875918442318e-04 3.4578241106497605e-04 0.0000000000000000e+00  -1.7071299237379176e-04 3.3863510269546753e-04 0.0000000000000000e+00  -1.6965594500130757e-04 3.3146254247274341e-04 0.0000000000000000e+00  -1.6849049397664852e-04 3.2428838349184239e-04 0.0000000000000000e+00  -1.6722262258943052e-04 3.1709536654782929e-04 0.0000000000000000e+00  -1.6583804408558614e-04 3.0991183579039198e-04 0.0000000000000000e+00  -1.6435018361358501e-04 3.0269177803092924e-04 0.0000000000000000e+00  -1.6274474182489436e-04 2.9545272900333088e-04 0.0000000000000000e+00  -1.6102178403553275e-04 2.8821678375305079e-04 0.0000000000000000e+00  -1.5918440561582891e-04 2.8094422209049073e-04 0.0000000000000000e+00  -1.5722117359410928e-04 2.7367122064363283e-04 0.0000000000000000e+00  -1.5513589964014137e-04 2.6636756798628761e-04 0.0000000000000000e+00  -1.5293141942264085e-04 2.5901786592324945e-04 0.0000000000000000e+00  -1.5058775404331053e-04 2.5167460238073483e-04 0.0000000000000000e+00  -1.4811814306984534e-04 2.4427430972402019e-04 0.0000000000000000e+00  -1.4549964677068914e-04 2.3685882688961348e-04 0.0000000000000000e+00  -1.4275638778966294e-04 2.2938912268027751e-04 0.0000000000000000e+00  -1.3985135085619401e-04 2.2190638015200296e-04 0.0000000000000000e+00  -1.3681574369036226e-04 2.1434109915300807e-04 0.000000000000000