<?xml version="1.0"?>
<VTKFile type="UnstructuredGrid"  version="0.1"  >
<UnstructuredGrid>
<Piece  NumberOfPoints="16512" NumberOfCells="32424">
<Points>
<DataArray  type="Float64"  NumberOfComponents="3"  format="ascii">-25 4.9 0  25 4.9 0  25 -4.9 0  -25 -4.9 0  -10 0 0  10 0 0  -24.80000000000034 4.9 0  -24.60000000000068 4.9 0  -24.40000000000101 4.9 0  -24.20000000000135 4.9 0  -24.00000000000169 4.9 0  -23.80000000000203 4.9 0  -23.60000000000237 4.9 0  -23.40000000000271 4.9 0  -23.20000000000304 4.9 0  -23.00000000000338 4.9 0  -22.80000000000372 4.9 0  -22.60000000000406 4.9 0  -22.40000000000439 4.9 0  -22.20000000000473 4.9 0  -22.00000000000507 4.9 0  -21.80000000000541 4.9 0  -21.60000000000575 4.9 0  -21.40000000000608 4.9 0  -21.20000000000642 4.9 0  -21.00000000000676 4.9 0  -20.8000000000071 4.9 0  -20.60000000000744 4.9 0  -20.40000000000777 4.9 0  -20.20000000000811 4.9 0  -20.00000000000845 4.9 0  -19.80000000000879 4.9 0  -19.60000000000912 4.9 0  -19.40000000000946 4.9 0  -19.2000000000098 4.9 0  -19.00000000001039 4.9 0  -18.80000000001108 4.9 0  -18.60000000001231 4.9 0  -18.40000000001371 4.9 0  -18.2000000000154 4.9 0  -18.00000000001716 4.9 0  -17.80000000001892 4.9 0  -17.60000000002067 4.9 0  -17.40000000002243 4.9 0  -17.20000000002419 4.9 0  -17.00000000002595 4.9 0  -16.80000000002771 4.9 0  -16.60000000002947 4.9 0  -16.40000000003123 4.9 0  -16.20000000003299 4.9 0  -16.00000000003472 4.9 0  -15.80000000003612 4.9 0  -15.60000000003748 4.9 0  -15.40000000003853 4.9 0  -15.20000000003958 4.9 0  -15.00000000004063 4.9 0  -14.80000000004168 4.9 0  -14.60000000004273 4.9 0  -14.40000000004377 4.9 0  -14.20000000004482 4.9 0  -14.00000000004587 4.9 0  -13.80000000004692 4.9 0  -13.60000000004797 4.9 0  -13.40000000004902 4.9 0  -13.20000000005007 4.9 0  -13.00000000005111 4.9 0  -12.80000000005216 4.9 0  -12.60000000005321 4.9 0  -12.40000000005426 4.9 0  -12.20000000005531 4.9 0  -12.00000000005636 4.9 0  -11.80000000005741 4.9 0  -11.60000000005846 4.9 0  -11.4000000000595 4.9 0  -11.20000000006055 4.9 0  -11.0000000000616 4.9 0  -10.80000000006265 4.9 0  -10.6000000000637 4.9 0  -10.40000000006475 4.9 0  -10.2000000000658 4.9 0  -10.00000000006684 4.9 0  -9.800000000067891 4.9 0  -9.60000000006894 4.9 0  -9.400000000069989 4.9 0  -9.200000000070727 4.9 0  -9.00000000007142 4.9 0  -8.800000000071787 4.9 0  -8.600000000072125 4.9 0  -8.400000000072467 4.9 0  -8.200000000072805 4.9 0  -8.000000000073143 4.9 0  -7.800000000073481 4.9 0  -7.60000000007382 4.9 0  -7.400000000074154 4.9 0  -7.200000000074493 4.9 0  -7.000000000074831 4.9 0  -6.800000000075173 4.9 0  -6.600000000075511 4.9 0  -6.400000000075849 4.9 0  -6.200000000076187 4.9 0  -6.000000000076525 4.9 0  -5.800000000076867 4.9 0  -5.600000000077205 4.9 0  -5.400000000077544 4.9 0  -5.200000000077882 4.9 0  -5.00000000007822 4.9 0  -4.800000000078558 4.9 0  -4.600000000078897 4.9 0  -4.400000000079235 4.9 0  -4.200000000079573 4.9 0  -4.000000000079908 4.9 0  -3.800000000080246 4.9 0  -3.600000000080588 4.9 0  -3.400000000080926 4.9 0  -3.200000000081264 4.9 0  -3.000000000081606 4.9 0  -2.800000000081944 4.9 0  -2.600000000082282 4.9 0  -2.40000000008262 4.9 0  -2.200000000082959 4.9 0  -2.000000000083297 4.9 0  -1.800000000083635 4.9 0  -1.600000000083973 4.9 0  -1.400000000084312 4.9 0  -1.20000000008465 4.9 0  -1.000000000084988 4.9 0  -0.8000000000853262 4.9 0  -0.6000000000856645 4.9 0  -0.4000000000860027 4.9 0  -0.2000000000863409 4.9 0  -8.667910833537462e-11 4.9 0  0.1999999999129827 4.9 0  0.3999999999126409 4.9 0  0.5999999999123027 4.9 0  0.7999999999119716 4.9 0  0.9999999999116262 4.9 0  1.199999999911295 4.9 0  1.39999999991095 4.9 0  1.599999999910619 4.9 0  1.799999999910273 4.9 0  1.999999999909939 4.9 0  2.199999999909597 4.9 0  2.399999999909262 4.9 0  2.599999999908921 4.9 0  2.799999999908582 4.9 0  2.999999999908244 4.9 0  3.199999999907906 4.9 0  3.399999999907564 4.9 0  3.599999999907226 4.9 0  3.799999999906888 4.9 0  3.999999999906549 4.9 0  4.199999999906218 4.9 0  4.399999999905873 4.9 0  4.599999999905542 4.9 0  4.799999999905197 4.9 0  4.999999999904865 4.9 0  5.19999999990452 4.9 0  5.399999999904182 4.9 0  5.599999999903844 4.9 0  5.799999999903505 4.9 0  5.999999999903167 4.9 0  6.199999999902829 4.9 0  6.399999999902491 4.9 0  6.599999999902153 4.9 0  6.799999999902379 4.9 0  6.999999999902752 4.9 0  7.199999999903724 4.9 0  7.399999999904807 4.9 0  7.59999999990589 4.9 0  7.799999999906966 4.9 0  7.999999999908056 4.9 0  8.199999999909132 4.9 0  8.399999999910214 4.9 0  8.59999999991129 4.9 0  8.79999999991238 4.9 0  8.999999999913456 4.9 0  9.199999999914539 4.9 0  9.399999999915622 4.9 0  9.599999999916704 4.9 0  9.79999999991778 4.9 0  9.99999999991887 4.9 0  10.19999999991995 4.9 0  10.39999999992103 4.9 0  10.59999999992212 4.9 0  10.79999999992319 4.9 0  10.99999999992428 4.9 0  11.19999999992536 4.9 0  11.39999999992644 4.9 0  11.59999999992752 4.9 0  11.7999999999286 4.9 0  11.99999999992968 4.9 0  12.19999999993077 4.9 0  12.39999999993184 4.9 0  12.59999999993293 4.9 0  12.79999999993401 4.9 0  12.99999999993509 4.9 0  13.19999999993617 4.9 0  13.39999999993726 4.9 0  13.59999999993834 4.9 0  13.79999999993942 4.9 0  13.99999999994051 4.9 0  14.19999999994158 4.9 0  14.39999999994266 4.9 0  14.59999999994375 4.9 0  14.79999999994483 4.9 0  14.99999999994591 4.9 0  15.199999999947 4.9 0  15.39999999994807 4.9 0  15.59999999994915 4.9 0  15.79999999995024 4.9 0  15.99999999995132 4.9 0  16.1999999999524 4.9 0  16.39999999995349 4.9 0  16.59999999995456 4.9 0  16.79999999995565 4.9 0  16.99999999995674 4.9 0  17.19999999995781 4.9 0  17.39999999995889 4.9 0  17.59999999995997 4.9 0  17.79999999996106 4.9 0  17.99999999996214 4.9 0  18.19999999996322 4.9 0  18.3999999999643 4.9 0  18.59999999996538 4.9 0  18.79999999996646 4.9 0  18.99999999996755 4.9 0  19.19999999996863 4.9 0  19.39999999996971 4.9 0  19.59999999997079 4.9 0  19.79999999997187 4.9 0  19.99999999997296 4.9 0  20.19999999997404 4.9 0  20.39999999997512 4.9 0  20.5999999999762 4.9 0  20.79999999997728 4.9 0  20.99999999997836 4.9 0  21.19999999997945 4.9 0  21.39999999998052 4.9 0  21.59999999998161 4.9 0  21.79999999998269 4.9 0  21.99999999998377 4.9 0  22.19999999998485 4.9 0  22.39999999998594 4.9 0  22.59999999998701 4.9 0  22.7999999999881 4.9 0  22.99999999998919 4.9 0  23.19999999999026 4.9 0  23.39999999999135 4.9 0  23.59999999999243 4.9 0  23.79999999999351 4.9 0  23.99999999999459 4.9 0  24.19999999999568 4.9 0  24.39999999999675 4.9 0  24.59999999999783 4.9 0  24.79999999999892 4.9 0  25 4.700000000000415 0  25 4.500000000000868 0  25 4.300000000001562 0  25 4.100000000001831 0  25 3.900000000002072 0  25 3.700000000002459 0  25 3.500000000003038 0  25 3.300000000003653 0  25 3.100000000004294 0  25 2.900000000004838 0  25 2.700000000005293 0  25 2.500000000005957 0  25 2.300000000006508 0  25 2.100000000007153 0  25 1.900000000007722 0  25 1.700000000008417 0  25 1.500000000008938 0  25 1.30000000000963 0  25 1.100000000010154 0  25 0.9000000000108268 0  25 0.7000000000114559 0  25 0.5000000000119762 0  25 0.3000000000126564 0  25 0.1000000000131926 0  25 -0.09999999998679243 0  25 -0.2999999999874587 0  25 -0.4999999999878586 0  25 -0.6999999999884441 0  25 -0.899999999988804 0  25 -1.099999999989427 0  25 -1.299999999989749 0  25 -1.499999999990411 0  25 -1.69999999999073 0  25 -1.899999999991396 0  25 -2.099999999991715 0  25 -2.299999999992381 0  25 -2.499999999993047 0  25 -2.699999999993714 0  25 -2.899999999994227 0  25 -3.099999999994698 0  25 -3.299999999994673 0  25 -3.499999999995339 0  25 -3.699999999996004 0  25 -3.89999999999667 0  25 -4.099999999997335 0  25 -4.299999999998002 0  25 -4.499999999998668 0  25 -4.699999999999335 0  24.80000000000034 -4.9 0  24.60000000000068 -4.9 0  24.40000000000101 -4.9 0  24.20000000000135 -4.9 0  24.00000000000169 -4.9 0  23.80000000000203 -4.9 0  23.60000000000237 -4.9 0  23.40000000000271 -4.9 0  23.20000000000304 -4.9 0  23.00000000000338 -4.9 0  22.80000000000372 -4.9 0  22.60000000000406 -4.9 0  22.40000000000439 -4.9 0  22.20000000000473 -4.9 0  22.00000000000507 -4.9 0  21.80000000000541 -4.9 0  21.60000000000575 -4.9 0  21.40000000000608 -4.9 0  21.20000000000642 -4.9 0  21.00000000000676 -4.9 0  20.8000000000071 -4.9 0  20.60000000000744 -4.9 0  20.40000000000777 -4.9 0  20.20000000000811 -4.9 0  20.00000000000845 -4.9 0  19.80000000000879 -4.9 0  19.60000000000912 -4.9 0  19.40000000000946 -4.9 0  19.2000000000098 -4.9 0  19.00000000001039 -4.9 0  18.80000000001108 -4.9 0  18.60000000001231 -4.9 0  18.40000000001371 -4.9 0  18.2000000000154 -4.9 0  18.00000000001716 -4.9 0  17.80000000001892 -4.9 0  17.60000000002067 -4.9 0  17.40000000002243 -4.9 0  17.20000000002419 -4.9 0  17.00000000002595 -4.9 0  16.80000000002771 -4.9 0  16.60000000002947 -4.9 0  16.40000000003123 -4.9 0  16.20000000003299 -4.9 0  16.00000000003472 -4.9 0  15.80000000003612 -4.9 0  15.60000000003748 -4.9 0  15.40000000003853 -4.9 0  15.20000000003958 -4.9 0  15.00000000004063 -4.9 0  14.80000000004168 -4.9 0  14.60000000004273 -4.9 0  14.40000000004377 -4.9 0  14.20000000004482 -4.9 0  14.00000000004587 -4.9 0  13.80000000004692 -4.9 0  13.60000000004797 -4.9 0  13.40000000004902 -4.9 0  13.20000000005007 -4.9 0  13.00000000005111 -4.9 0  12.80000000005216 -4.9 0  12.60000000005321 -4.9 0  12.40000000005426 -4.9 0  12.20000000005531 -4.9 0  12.00000000005636 -4.9 0  11.80000000005741 -4.9 0  11.60000000005846 -4.9 0  11.4000000000595 -4.9 0  11.20000000006055 -4.9 0  11.0000000000616 -4.9 0  10.80000000006265 -4.9 0  10.6000000000637 -4.9 0  10.40000000006475 -4.9 0  10.2000000000658 -4.9 0  10.00000000006684 -4.9 0  9.800000000067891 -4.9 0  9.60000000006894 -4.9 0  9.400000000069989 -4.9 0  9.200000000070727 -4.9 0  9.00000000007142 -4.9 0  8.800000000071787 -4.9 0  8.600000000072125 -4.9 0  8.400000000072467 -4.9 0  8.200000000072805 -4.9 0  8.000000000073143 -4.9 
[...]
<PointData  Vectors="f_7"> 
<DataArray  type="Float64"  Name="f_7"  NumberOfComponents="3" format="ascii">2.3456053772214088e-04 5.8000000000000000e-04 0.0000000000000000e+00  -2.3472141306686534e-04 5.8000000000000000e-04 0.0000000000000000e+00  0.0000000000000000e+00 0.0000000000000000e+00 0.0000000000000000e+00  0.0000000000000000e+00 0.0000000000000000e+00 0.0000000000000000e+00  3.3627634311555560e-05 2.9177329865886343e-04 0.0000000000000000e+00  -3.2973375768597774e-05 2.8667398252274755e-04 0.0000000000000000e+00  2.3109850440723888e-04 5.8000000000000000e-04 0.0000000000000000e+00  2.2761349273882600e-04 5.8000000000000000e-04 0.0000000000000000e+00  2.2410891865501874e-04 5.8000000000000000e-04 0.0000000000000000e+00  2.2053797644034628e-04 5.8000000000000000e-04 0.0000000000000000e+00  2.1695119998885643e-04 5.8000000000000000e-04 0.0000000000000000e+00  2.1331558629185223e-04 5.8000000000000000e-04 0.0000000000000000e+00  2.0965879856642627e-04 5.8000000000000000e-04 0.0000000000000000e+00  2.0596143238253687e-04 5.8000000000000000e-04 0.0000000000000000e+00  2.0225446731232471e-04 5.8000000000000000e-04 0.0000000000000000e+00  1.9851285928709192e-04 5.8000000000000000e-04 0.0000000000000000e+00  1.9475154728573909e-04 5.8000000000000000e-04 0.0000000000000000e+00  1.9098762163556100e-04 5.8000000000000000e-04 0.0000000000000000e+00  1.8718332962301492e-04 5.8000000000000000e-04 0.0000000000000000e+00  1.8338042540039411e-04 5.8000000000000000e-04 0.0000000000000000e+00  1.7957226441794538e-04 5.8000000000000000e-04 0.0000000000000000e+00  1.7576125031926057e-04 5.8000000000000000e-04 0.0000000000000000e+00  1.7192319292514476e-04 5.8000000000000000e-04 0.0000000000000000e+00  1.6809467059891175e-04 5.8000000000000000e-04 0.0000000000000000e+00  1.6427416543408964e-04 5.8000000000000000e-04 0.0000000000000000e+00  1.6043797437453181e-04 5.8000000000000000e-04 0.0000000000000000e+00  1.5661155020920577e-04 5.8000000000000000e-04 0.0000000000000000e+00  1.5279194203205406e-04 5.8000000000000000e-04 0.0000000000000000e+00  1.4898445667982054e-04 5.8000000000000000e-04 0.0000000000000000e+00  1.4519117726967233e-04 5.8000000000000000e-04 0.0000000000000000e+00  1.4138625709680057e-04 5.8000000000000000e-04 0.0000000000000000e+00  1.3759960986277123e-04 5.8000000000000000e-04 0.0000000000000000e+00  1.3382972431942204e-04 5.8000000000000000e-04 0.0000000000000000e+00  1.3006862617502142e-04 5.8000000000000000e-04 0.0000000000000000e+00  1.2632105260473880e-04 5.8000000000000000e-04 0.0000000000000000e+00  1.2258849404647775e-04 5.8000000000000000e-04 0.0000000000000000e+00  1.1886538158852824e-04 5.8000000000000000e-04 0.0000000000000000e+00  1.1515656260413889e-04 5.8000000000000000e-04 0.0000000000000000e+00  1.1146239818783157e-04 5.8000000000000000e-04 0.0000000000000000e+00  1.0778476144178686e-04 5.8000000000000000e-04 0.0000000000000000e+00  1.0410739620071506e-04 5.8000000000000000e-04 0.0000000000000000e+00  1.0044740798800420e-04 5.8000000000000000e-04 0.0000000000000000e+00  9.6795509987661067e-05 5.8000000000000000e-04 0.0000000000000000e+00  9.3155566470292411e-05 5.8000000000000000e-04 0.0000000000000000e+00  8.9518080278532715e-05 5.8000000000000000e-04 0.0000000000000000e+00  8.5889028176282465e-05 5.8000000000000000e-04 0.0000000000000000e+00  8.2266182161683376e-05 5.8000000000000000e-04 0.0000000000000000e+00  7.8645467311757314e-05 5.8000000000000000e-04 0.0000000000000000e+00  7.5024899071038273e-05 5.8000000000000000e-04 0.0000000000000000e+00  7.1403154870107455e-05 5.8000000000000000e-04 0.0000000000000000e+00  6.7777382064595807e-05 5.8000000000000000e-04 0.0000000000000000e+00  6.4146615049176186e-05 5.8000000000000000e-04 0.0000000000000000e+00  6.0509616133265209e-05 5.8000000000000000e-04 0.0000000000000000e+00  5.6861606210990826e-05 5.8000000000000000e-04 0.0000000000000000e+00  5.3201289695093165e-05 5.8000000000000000e-04 0.0000000000000000e+00  4.9529981202191572e-05 5.8000000000000000e-04 0.0000000000000000e+00  4.5841840540613671e-05 5.8000000000000000e-04 0.0000000000000000e+00  4.2136637182443904e-05 5.8000000000000000e-04 0.0000000000000000e+00  3.8414066526809440e-05 5.8000000000000000e-04 0.0000000000000000e+00  3.4665960408625086e-05 5.8000000000000000e-04 0.0000000000000000e+00  3.0908524950697491e-05 5.8000000000000000e-04 0.0000000000000000e+00  2.7129698484526163e-05 5.8000000000000000e-04 0.0000000000000000e+00  2.3333066138046284e-05 5.8000000000000000e-04 0.0000000000000000e+00  1.9518021832052874e-05 5.8000000000000000e-04 0.0000000000000000e+00  1.5693681756079518e-05 5.8000000000000000e-04 0.0000000000000000e+00  1.1855665568518146e-05 5.8000000000000000e-04 0.0000000000000000e+00  8.0329101631796806e-06 5.8000000000000000e-04 0.0000000000000000e+00  4.2121298325802266e-06 5.8000000000000000e-04 0.0000000000000000e+00  4.0699686426425102e-07 5.8000000000000000e-04 0.0000000000000000e+00  -3.3771879363480606e-06 5.8000000000000000e-04 0.0000000000000000e+00  -7.1275152698351476e-06 5.8000000000000000e-04 0.0000000000000000e+00  -1.0805557976614034e-05 5.8000000000000000e-04 0.0000000000000000e+00  -1.4411327932444737e-05 5.8000000000000000e-04 0.0000000000000000e+00  -1.7903123205142294e-05 5.8000000000000000e-04 0.0000000000000000e+00  -2.1309046309639106e-05 5.8000000000000000e-04 0.0000000000000000e+00  -2.4618970886280985e-05 5.8000000000000000e-04 0.0000000000000000e+00  -2.7763881376940021e-05 5.8000000000000000e-04 0.0000000000000000e+00  -3.0710821246076829e-05 5.8000000000000000e-04 0.0000000000000000e+00  -3.3480212885201740e-05 5.8000000000000000e-04 0.0000000000000000e+00  -3.6093124715393362e-05 5.8000000000000000e-04 0.0000000000000000e+00  -3.8439208642449586e-05 5.8000000000000000e-04 0.0000000000000000e+00  -4.0599435152289983e-05 5.8000000000000000e-04 0.0000000000000000e+00  -4.2521264574003827e-05 5.8000000000000000e-04 0.0000000000000000e+00  -4.4180381390985471e-05 5.8000000000000000e-04 0.0000000000000000e+00  -4.5611379687334085e-05 5.8000000000000000e-04 0.0000000000000000e+00  -4.6820907131102381e-05 5.8000000000000000e-04 0.0000000000000000e+00  -4.7789475696569117e-05 5.8000000000000000e-04 0.0000000000000000e+00  -4.8520475146446137e-05 5.8000000000000000e-04 0.0000000000000000e+00  -4.9019666301638930e-05 5.8000000000000000e-04 0.0000000000000000e+00  -4.9300023939773360e-05 5.8000000000000000e-04 0.0000000000000000e+00  -4.9404038020924737e-05 5.8000000000000000e-04 0.0000000000000000e+00  -4.9332220134464613e-05 5.8000000000000000e-04 0.0000000000000000e+00  -4.9060825641605677e-05 5.8000000000000000e-04 0.0000000000000000e+00  -4.8608694313822750e-05 5.8000000000000000e-04 0.0000000000000000e+00  -4.8035264164212230e-05 5.8000000000000000e-04 0.0000000000000000e+00  -4.7330337171899032e-05 5.8000000000000000e-04 0.0000000000000000e+00  -4.6502386938784497e-05 5.8000000000000000e-04 0.0000000000000000e+00  -4.5533879128162757e-05 5.8000000000000000e-04 0.0000000000000000e+00  -4.4478429675997077e-05 5.8000000000000000e-04 0.0000000000000000e+00  -4.3333683658333429e-05 5.8000000000000000e-04 0.0000000000000000e+00  -4.2118791354434062e-05 5.8000000000000000e-04 0.0000000000000000e+00  -4.0805662297537593e-05 5.8000000000000000e-04 0.0000000000000000e+00  -3.9452098124552531e-05 5.8000000000000000e-04 0.0000000000000000e+00  -3.8051440086516144e-05 5.8000000000000000e-04 0.0000000000000000e+00  -3.6600240599641232e-05 5.8000000000000000e-04 0.0000000000000000e+00  -3.5113055890466640e-05 5.8000000000000000e-04 0.0000000000000000e+00  -3.3605164572849375e-05 5.8000000000000000e-04 0.0000000000000000e+00  -3.2081559962962256e-05 5.8000000000000000e-04 0.0000000000000000e+00  -3.0522913314108854e-05 5.8000000000000000e-04 0.0000000000000000e+00  -2.8969171100575053e-05 5.8000000000000000e-04 0.0000000000000000e+00  -2.7413664235976643e-05 5.8000000000000000e-04 0.0000000000000000e+00  -2.5860044748444421e-05 5.8000000000000000e-04 0.0000000000000000e+00  -2.4316966304953570e-05 5.8000000000000000e-04 0.0000000000000000e+00  -2.2773664142154646e-05 5.8000000000000000e-04 0.0000000000000000e+00  -2.1246527234667616e-05 5.8000000000000000e-04 0.0000000000000000e+00  -1.9733729971068196e-05 5.8000000000000000e-04 0.0000000000000000e+00  -1.8235530259812080e-05 5.8000000000000000e-04 0.0000000000000000e+00  -1.6756106139303537e-05 5.8000000000000000e-04 0.0000000000000000e+00  -1.5284188919362079e-05 5.8000000000000000e-04 0.0000000000000000e+00  -1.3832309361623489e-05 5.8000000000000000e-04 0.0000000000000000e+00  -1.2396437348287474e-05 5.8000000000000000e-04 0.0000000000000000e+00  -1.0977128445683936e-05 5.8000000000000000e-04 0.0000000000000000e+00  -9.5723344178937837e-06 5.8000000000000000e-04 0.0000000000000000e+00  -8.1834190394387728e-06 5.8000000000000000e-04 0.0000000000000000e+00  -6.8088893541688546e-06 5.8000000000000000e-04 0.0000000000000000e+00  -5.4480384759516933e-06 5.8000000000000000e-04 0.0000000000000000e+00  -4.1007118470072852e-06 5.8000000000000000e-04 0.0000000000000000e+00  -2.7658513492448159e-06 5.8000000000000000e-04 0.0000000000000000e+00  -1.4438399692397896e-06 5.8000000000000000e-04 0.0000000000000000e+00  -1.3127332199776263e-07 5.8000000000000000e-04 0.0000000000000000e+00  1.1706255004960884e-06 5.8000000000000000e-04 0.0000000000000000e+00  2.4627177118730565e-06 5.8000000000000000e-04 0.0000000000000000e+00  3.7449613417963791e-06 5.8000000000000000e-04 0.0000000000000000e+00  5.0209419207029841e-06 5.8000000000000000e-04 0.0000000000000000e+00  6.2920757253938553e-06 5.8000000000000000e-04 0.0000000000000000e+00  7.5538862645503181e-06 5.8000000000000000e-04 0.0000000000000000e+00  8.8135978538525416e-06 5.8000000000000000e-04 0.0000000000000000e+00  1.0071358686878973e-05 5.8000000000000000e-04 0.0000000000000000e+00  1.1329067193362508e-05 5.8000000000000000e-04 0.0000000000000000e+00  1.2591337348246834e-05 5.8000000000000000e-04 0.0000000000000000e+00  1.3852328090159082e-05 5.8000000000000000e-04 0.0000000000000000e+00  1.5121103890219083e-05 5.8000000000000000e-04 0.0000000000000000e+00  1.6397333041867104e-05 5.8000000000000000e-04 0.0000000000000000e+00  1.7684430972499498e-05 5.8000000000000000e-04 0.0000000000000000e+00  1.8982095940372924e-05 5.8000000000000000e-04 0.0000000000000000e+00  2.0294520521619350e-05 5.8000000000000000e-04 0.0000000000000000e+00  2.1617115985403543e-05 5.8000000000000000e-04 0.0000000000000000e+00  2.2958231960914926e-05 5.8000000000000000e-04 0.0000000000000000e+00  2.4318587043029737e-05 5.8000000000000000e-04 0.0000000000000000e+00  2.5682214470404820e-05 5.8000000000000000e-04 0.0000000000000000e+00  2.7067292304622120e-05 5.8000000000000000e-04 0.0000000000000000e+00  2.8468262300895111e-05 5.8000000000000000e-04 0.0000000000000000e+00  2.9873043885210116e-05 5.8000000000000000e-04 0.0000000000000000e+00  3.1285907427129026e-05 5.8000000000000000e-04 0.0000000000000000e+00  3.2701089848676287e-05 5.8000000000000000e-04 0.0000000000000000e+00  3.4126595965743035e-05 5.8000000000000000e-04 0.0000000000000000e+00  3.5524851464140914e-05 5.8000000000000000e-04 0.0000000000000000e+00  3.6910720524576469e-05 5.8000000000000000e-04 0.0000000000000000e+00  3.8277494603456817e-05 5.8000000000000000e-04 0.0000000000000000e+00  3.9623375593958763e-05 5.8000000000000000e-04 0.0000000000000000e+00  4.0908138290585630e-05 5.8000000000000000e-04 0.0000000000000000e+00  4.2151057519051964e-05 5.8000000000000000e-04 0.0000000000000000e+00  4.3329551925315975e-05 5.8000000000000000e-04 0.0000000000000000e+00  4.4434649034640758e-05 5.8000000000000000e-04 0.0000000000000000e+00  4.5459056561168184e-05 5.8000000000000000e-04 0.0000000000000000e+00  4.6357017169169119e-05 5.8000000000000000e-04 0.0000000000000000e+00  4.7136261369027459e-05 5.8000000000000000e-04 0.0000000000000000e+00  4.7763496290232722e-05 5.8000000000000000e-04 0.0000000000000000e+00  4.8289173850681543e-05 5.8000000000000000e-04 0.0000000000000000e+00  4.8628645007849082e-05 5.8000000000000000e-04 0.0000000000000000e+00  4.8777581243374135e-05 5.8000000000000000e-04 0.0000000000000000e+00  4.8758593704059124e-05 5.8000000000000000e-04 0.0000000000000000e+00  4.8501837170022408e-05 5.8000000000000000e-04 0.0000000000000000e+00  4.8090866889058627e-05 5.8000000000000000e-04 0.0000000000000000e+00  4.7440032323474606e-05 5.8000000000000000e-04 0.0000000000000000e+00  4.6514509243676005e-05 5.8000000000000000e-04 0.0000000000000000e+00  4.5327186535054521e-05 5.8000000000000000e-04 0.0000000000000000e+00  4.3921283040815241e-05 5.8000000000000000e-04 0.0000000000000000e+00  4.2254944954422672e-05 5.8000000000000000e-04 0.0000000000000000e+00  4.0335145166838076e-05 5.8000000000000000e-04 0.0000000000000000e+00  3.8193018155415463e-05 5.8000000000000000e-04 0.0000000000000000e+00  3.5803217606951714e-05 5.8000000000000000e-04 0.0000000000000000e+00  3.3282445519527524e-05 5.8000000000000000e-04 0.0000000000000000e+00  3.0481096570246874e-05 5.8000000000000000e-04 0.0000000000000000e+00  2.7506743321655791e-05 5.8000000000000000e-04 0.0000000000000000e+00  2.4370443544390512e-05 5.8000000000000000e-04 0.0000000000000000e+00  2.1080908684577417e-05 5.8000000000000000e-04 0.0000000000000000e+00  1.7682195884063416e-05 5.8000000000000000e-04 0.0000000000000000e+00  1.4148185742820324e-05 5.8000000000000000e-04 0.0000000000000000e+00  1.0546426024453256e-05 5.8000000000000000e-04 0.0000000000000000e+00  6.8535157315485065e-06 5.8000000000000000e-04 0.0000000000000000e+00  3.1137385684840049e-06 5.8000000000000000e-04 0.0000000000000000e+00  -6.6389340557832425e-07 5.8000000000000000e-04 0.0000000000000000e+00  -4.4659026288717457e-06 5.8000000000000000e-04 0.0000000000000000e+00  -8.2965361774940391e-06 5.8000000000000000e-04 0.0000000000000000e+00  -1.2124792558331748e-05 5.8000000000000000e-04 0.0000000000000000e+00  -1.5956017763901777e-05 5.8000000000000000e-04 0.0000000000000000e+00  -1.9778507919684721e-05 5.8000000000000000e-04 0.0000000000000000e+00  -2.3588993628301327e-05 5.8000000000000000e-04 0.0000000000000000e+00  -2.7383975437363696e-05 5.8000000000000000e-04 0.0000000000000000e+00  -3.1161699808394171e-05 5.8000000000000000e-04 0.0000000000000000e+00  -3.4920416094221603e-05 5.8000000000000000e-04 0.0000000000000000e+00  -3.8658490749187965e-05 5.8000000000000000e-04 0.0000000000000000e+00  -4.2380656988490768e-05 5.8000000000000000e-04 0.0000000000000000e+00  -4.6083395324303992e-05 5.8000000000000000e-04 0.0000000000000000e+00  -4.9767777323737970e-05 5.8000000000000000e-04 0.0000000000000000e+00  -5.3438459779660117e-05 5.8000000000000000e-04 0.0000000000000000e+00  -5.7092930387659257e-05 5.8000000000000000e-04 0.0000000000000000e+00  -6.0737502092166236e-05 5.8000000000000000e-04 0.0000000000000000e+00  -6.4372065383874204e-05 5.8000000000000000e-04 0.0000000000000000e+00  -6.7999953968750807e-05 5.8000000000000000e-04 0.0000000000000000e+00  -7.1622488442954336e-05 5.8000000000000000e-04 0.0000000000000000e+00  -7.5239982131300267e-05 5.8000000000000000e-04 0.0000000000000000e+00  -7.8857653249275495e-05 5.8000000000000000e-04 0.0000000000000000e+00  -8.2476998719717781e-05 5.8000000000000000e-04 0.0000000000000000e+00  -8.6100423523874885e-05 5.8000000000000000e-04 0.0000000000000000e+00  -8.9728083141818102e-05 5.8000000000000000e-04 0.0000000000000000e+00  -9.3356652068989630e-05 5.8000000000000000e-04 0.0000000000000000e+00  -9.6995731752819297e-05 5.8000000000000000e-04 0.0000000000000000e+00  -1.0064504047579296e-04 5.8000000000000000e-04 0.0000000000000000e+00  -1.0430770605822084e-04 5.8000000000000000e-04 0.0000000000000000e+00  -1.0797168162986563e-04 5.8000000000000000e-04 0.0000000000000000e+00  -1.1165301316491687e-04 5.8000000000000000e-04 0.0000000000000000e+00  -1.1535041593794542e-04 5.8000000000000000e-04 0.0000000000000000e+00  -1.1905264213254038e-04 5.8000000000000000e-04 0.0000000000000000e+00  -1.2277182668242242e-04 5.8000000000000000e-04 0.0000000000000000e+00  -1.2650541653019256e-04 5.8000000000000000e-04 0.0000000000000000e+00  -1.3025441229042018e-04 5.8000000000000000e-04 0.0000000000000000e+00  -1.3401399182654618e-04 5.8000000000000000e-04 0.0000000000000000e+00  -1.3778187249561256e-04 5.8000000000000000e-04 0.0000000000000000e+00  -1.4156284210158166e-04 5.8000000000000000e-04 0.0000000000000000e+00  -1.4535822399523642e-04 5.8000000000000000e-04 0.0000000000000000e+00  -1.4916070786557945e-04 5.8000000000000000e-04 0.0000000000000000e+00  -1.5297058279992764e-04 5.8000000000000000e-04 0.0000000000000000e+00  -1.5678771110043459e-04 5.8000000000000000e-04 0.0000000000000000e+00  -1.6061307814050493e-04 5.8000000000000000e-04 0.0000000000000000e+00  -1.6443727780662286e-04 5.8000000000000000e-04 0.0000000000000000e+00  -1.6826815499871987e-04 5.8000000000000000e-04 0.0000000000000000e+00  -1.7209154952970359e-04 5.8000000000000000e-04 0.0000000000000000e+00  -1.7591837724507484e-04 5.8000000000000000e-04 0.0000000000000000e+00  -1.7974148194737185e-04 5.8000000000000000e-04 0.0000000000000000e+00  -1.8355146875745695e-04 5.8000000000000000e-04 0.0000000000000000e+00  -1.8735355535473504e-04 5.8000000000000000e-04 0.0000000000000000e+00  -1.9114494824766149e-04 5.8000000000000000e-04 0.0000000000000000e+00  -1.9492014353025846e-04 5.8000000000000000e-04 0.0000000000000000e+00  -1.9867412678411443e-04 5.8000000000000000e-04 0.0000000000000000e+00  -2.0241853549806725e-04 5.8000000000000000e-04 0.0000000000000000e+00  -2.0613394145329846e-04 5.8000000000000000e-04 0.0000000000000000e+00  -2.0982254236507738e-04 5.8000000000000000e-04 0.0000000000000000e+00  -2.1348238461228194e-04 5.8000000000000000e-04 0.0000000000000000e+00  -2.1710682552223692e-04 5.8000000000000000e-04 0.0000000000000000e+00  -2.2070112512687760e-04 5.8000000000000000e-04 0.0000000000000000e+00  -2.2426515845124328e-04 5.8000000000000000e-04 0.0000000000000000e+00  -2.2777443905014908e-04 5.8000000000000000e-04 0.0000000000000000e+00  -2.3125854285040639e-04 5.8000000000000000e-04 0.0000000000000000e+00  -2.3464832508958284e-04 5.6973152771036301e-04 0.0000000000000000e+00  -2.3444537718255774e-04 5.5946083482930314e-04 0.0000000000000000e+00  -2.3415920740000443e-04 5.4918783984876185e-04 0.0000000000000000e+00  -2.3371633448450425e-04 5.3891223392297139e-04 0.0000000000000000e+00  -2.3316222296743952e-04 5.2864943420996709e-04 0.0000000000000000e+00  -2.3245713890957087e-04 5.1835919164505608e-04 0.0000000000000000e+00  -2.3164189592626960e-04 5.0808810988538613e-04 0.0000000000000000e+00  -2.3070284628279135e-04 4.9779544053614650e-04 0.0000000000000000e+00  -2.2962153202028146e-04 4.8750141246936904e-04 0.0000000000000000e+00  -2.2840675522647468e-04 4.7721904530245100e-04 0.0000000000000000e+00  -2.2706093217781873e-04 4.6690754665262526e-04 0.0000000000000000e+00  -2.2557661058306055e-04 4.5659746186636779e-04 0.0000000000000000e+00  -2.2395894130725061e-04 4.4626692372538320e-04 0.0000000000000000e+00  -2.2219097962954408e-04 4.3595302938680239e-04 0.0000000000000000e+00  -2.2028842580306039e-04 4.2559584743046724e-04 0.0000000000000000e+00  -2.1823219787180814e-04 4.1521862225996200e-04 0.0000000000000000e+00  -2.1602320791139942e-04 4.0485064904472883e-04 0.0000000000000000e+00  -2.1366259846855600e-04 3.9443991261066581e-04 0.0000000000000000e+00  -2.1113760073468495e-04 3.8403418080644041e-04 0.0000000000000000e+00  -2.0845121526997197e-04 3.7359430355211789e-04 0.0000000000000000e+00  -2.0560513030930938e-04 3.6309929098549744e-04 0.0000000000000000e+00  -2.0257580763738834e-04 3.5261930044729804e-04 0.0000000000000000e+00  -1.9937611157989872e-04 3.4206977834726698e-04 0.0000000000000000e+00  -1.9597952748508135e-04 3.3150676925700827e-04 0.0000000000000000e+00  -1.9241252021272054e-04 3.2087825343095968e-04 0.0000000000000000e+00  -1.8862945283053227e-04 3.1024001804423585e-04 0.0000000000000000e+00  -1.8466662842559102e-04 2.9949824026675992e-04 0.0000000000000000e+00  -