<?xml version="1.0"?>
<VTKFile type="UnstructuredGrid"  version="0.1"  >
<UnstructuredGrid>
<Piece  NumberOfPoints="16512" NumberOfCells="32424">
<Points>
<DataArray  type="Float64"  NumberOfComponents="3"  format="ascii">-25 4.9 0  25 4.9 0  25 -4.9 0  -25 -4.9 0  -10 0 0  10 0 0  -24.80000000000034 4.9 0  -24.60000000000068 4.9 0  -24.40000000000101 4.9 0  -24.20000000000135 4.9 0  -24.00000000000169 4.9 0  -23.80000000000203 4.9 0  -23.60000000000237 4.9 0  -23.40000000000271 4.9 0  -23.20000000000304 4.9 0  -23.00000000000338 4.9 0  -22.80000000000372 4.9 0  -22.60000000000406 4.9 0  -22.40000000000439 4.9 0  -22.20000000000473 4.9 0  -22.00000000000507 4.9 0  -21.80000000000541 4.9 0  -21.60000000000575 4.9 0  -21.40000000000608 4.9 0  -21.20000000000642 4.9 0  -21.00000000000676 4.9 0  -20.8000000000071 4.9 0  -20.60000000000744 4.9 0  -20.40000000000777 4.9 0  -20.20000000000811 4.9 0  -20.00000000000845 4.9 0  -19.80000000000879 4.9 0  -19.60000000000912 4.9 0  -19.40000000000946 4.9 0  -19.2000000000098 4.9 0  -19.00000000001039 4.9 0  -18.80000000001108 4.9 0  -18.60000000001231 4.9 0  -18.40000000001371 4.9 0  -18.2000000000154 4.9 0  -18.00000000001716 4.9 0  -17.80000000001892 4.9 0  -17.60000000002067 4.9 0  -17.40000000002243 4.9 0  -17.20000000002419 4.9 0  -17.00000000002595 4.9 0  -16.80000000002771 4.9 0  -16.60000000002947 4.9 0  -16.40000000003123 4.9 0  -16.20000000003299 4.9 0  -16.00000000003472 4.9 0  -15.80000000003612 4.9 0  -15.60000000003748 4.9 0  -15.40000000003853 4.9 0  -15.20000000003958 4.9 0  -15.00000000004063 4.9 0  -14.80000000004168 4.9 0  -14.60000000004273 4.9 0  -14.40000000004377 4.9 0  -14.20000000004482 4.9 0  -14.00000000004587 4.9 0  -13.80000000004692 4.9 0  -13.60000000004797 4.9 0  -13.40000000004902 4.9 0  -13.20000000005007 4.9 0  -13.00000000005111 4.9 0  -12.80000000005216 4.9 0  -12.60000000005321 4.9 0  -12.40000000005426 4.9 0  -12.20000000005531 4.9 0  -12.00000000005636 4.9 0  -11.80000000005741 4.9 0  -11.60000000005846 4.9 0  -11.4000000000595 4.9 0  -11.20000000006055 4.9 0  -11.0000000000616 4.9 0  -10.80000000006265 4.9 0  -10.6000000000637 4.9 0  -10.40000000006475 4.9 0  -10.2000000000658 4.9 0  -10.00000000006684 4.9 0  -9.800000000067891 4.9 0  -9.60000000006894 4.9 0  -9.400000000069989 4.9 0  -9.200000000070727 4.9 0  -9.00000000007142 4.9 0  -8.800000000071787 4.9 0  -8.600000000072125 4.9 0  -8.400000000072467 4.9 0  -8.200000000072805 4.9 0  -8.000000000073143 4.9 0  -7.800000000073481 4.9 0  -7.60000000007382 4.9 0  -7.400000000074154 4.9 0  -7.200000000074493 4.9 0  -7.000000000074831 4.9 0  -6.800000000075173 4.9 0  -6.600000000075511 4.9 0  -6.400000000075849 4.9 0  -6.200000000076187 4.9 0  -6.000000000076525 4.9 0  -5.800000000076867 4.9 0  -5.600000000077205 4.9 0  -5.400000000077544 4.9 0  -5.200000000077882 4.9 0  -5.00000000007822 4.9 0  -4.800000000078558 4.9 0  -4.600000000078897 4.9 0  -4.400000000079235 4.9 0  -4.200000000079573 4.9 0  -4.000000000079908 4.9 0  -3.800000000080246 4.9 0  -3.600000000080588 4.9 0  -3.400000000080926 4.9 0  -3.200000000081264 4.9 0  -3.000000000081606 4.9 0  -2.800000000081944 4.9 0  -2.600000000082282 4.9 0  -2.40000000008262 4.9 0  -2.200000000082959 4.9 0  -2.000000000083297 4.9 0  -1.800000000083635 4.9 0  -1.600000000083973 4.9 0  -1.400000000084312 4.9 0  -1.20000000008465 4.9 0  -1.000000000084988 4.9 0  -0.8000000000853262 4.9 0  -0.6000000000856645 4.9 0  -0.4000000000860027 4.9 0  -0.2000000000863409 4.9 0  -8.667910833537462e-11 4.9 0  0.1999999999129827 4.9 0  0.3999999999126409 4.9 0  0.5999999999123027 4.9 0  0.7999999999119716 4.9 0  0.9999999999116262 4.9 0  1.199999999911295 4.9 0  1.39999999991095 4.9 0  1.599999999910619 4.9 0  1.799999999910273 4.9 0  1.999999999909939 4.9 0  2.199999999909597 4.9 0  2.399999999909262 4.9 0  2.599999999908921 4.9 0  2.799999999908582 4.9 0  2.999999999908244 4.9 0  3.199999999907906 4.9 0  3.399999999907564 4.9 0  3.599999999907226 4.9 0  3.799999999906888 4.9 0  3.999999999906549 4.9 0  4.199999999906218 4.9 0  4.399999999905873 4.9 0  4.599999999905542 4.9 0  4.799999999905197 4.9 0  4.999999999904865 4.9 0  5.19999999990452 4.9 0  5.399999999904182 4.9 0  5.599999999903844 4.9 0  5.799999999903505 4.9 0  5.999999999903167 4.9 0  6.199999999902829 4.9 0  6.399999999902491 4.9 0  6.599999999902153 4.9 0  6.799999999902379 4.9 0  6.999999999902752 4.9 0  7.199999999903724 4.9 0  7.399999999904807 4.9 0  7.59999999990589 4.9 0  7.799999999906966 4.9 0  7.999999999908056 4.9 0  8.199999999909132 4.9 0  8.399999999910214 4.9 0  8.59999999991129 4.9 0  8.79999999991238 4.9 0  8.999999999913456 4.9 0  9.199999999914539 4.9 0  9.399999999915622 4.9 0  9.599999999916704 4.9 0  9.79999999991778 4.9 0  9.99999999991887 4.9 0  10.19999999991995 4.9 0  10.39999999992103 4.9 0  10.59999999992212 4.9 0  10.79999999992319 4.9 0  10.99999999992428 4.9 0  11.19999999992536 4.9 0  11.39999999992644 4.9 0  11.59999999992752 4.9 0  11.7999999999286 4.9 0  11.99999999992968 4.9 0  12.19999999993077 4.9 0  12.39999999993184 4.9 0  12.59999999993293 4.9 0  12.79999999993401 4.9 0  12.99999999993509 4.9 0  13.19999999993617 4.9 0  13.39999999993726 4.9 0  13.59999999993834 4.9 0  13.79999999993942 4.9 0  13.99999999994051 4.9 0  14.19999999994158 4.9 0  14.39999999994266 4.9 0  14.59999999994375 4.9 0  14.79999999994483 4.9 0  14.99999999994591 4.9 0  15.199999999947 4.9 0  15.39999999994807 4.9 0  15.59999999994915 4.9 0  15.79999999995024 4.9 0  15.99999999995132 4.9 0  16.1999999999524 4.9 0  16.39999999995349 4.9 0  16.59999999995456 4.9 0  16.79999999995565 4.9 0  16.99999999995674 4.9 0  17.19999999995781 4.9 0  17.39999999995889 4.9 0  17.59999999995997 4.9 0  17.79999999996106 4.9 0  17.99999999996214 4.9 0  18.19999999996322 4.9 0  18.3999999999643 4.9 0  18.59999999996538 4.9 0  18.79999999996646 4.9 0  18.99999999996755 4.9 0  19.19999999996863 4.9 0  19.39999999996971 4.9 0  19.59999999997079 4.9 0  19.79999999997187 4.9 0  19.99999999997296 4.9 0  20.19999999997404 4.9 0  20.39999999997512 4.9 0  20.5999999999762 4.9 0  20.79999999997728 4.9 0  20.99999999997836 4.9 0  21.19999999997945 4.9 0  21.39999999998052 4.9 0  21.59999999998161 4.9 0  21.79999999998269 4.9 0  21.99999999998377 4.9 0  22.19999999998485 4.9 0  22.39999999998594 4.9 0  22.59999999998701 4.9 0  22.7999999999881 4.9 0  22.99999999998919 4.9 0  23.19999999999026 4.9 0  23.39999999999135 4.9 0  23.59999999999243 4.9 0  23.79999999999351 4.9 0  23.99999999999459 4.9 0  24.19999999999568 4.9 0  24.39999999999675 4.9 0  24.59999999999783 4.9 0  24.79999999999892 4.9 0  25 4.700000000000415 0  25 4.500000000000868 0  25 4.300000000001562 0  25 4.100000000001831 0  25 3.900000000002072 0  25 3.700000000002459 0  25 3.500000000003038 0  25 3.300000000003653 0  25 3.100000000004294 0  25 2.900000000004838 0  25 2.700000000005293 0  25 2.500000000005957 0  25 2.300000000006508 0  25 2.100000000007153 0  25 1.900000000007722 0  25 1.700000000008417 0  25 1.500000000008938 0  25 1.30000000000963 0  25 1.100000000010154 0  25 0.9000000000108268 0  25 0.7000000000114559 0  25 0.5000000000119762 0  25 0.3000000000126564 0  25 0.1000000000131926 0  25 -0.09999999998679243 0  25 -0.2999999999874587 0  25 -0.4999999999878586 0  25 -0.6999999999884441 0  25 -0.899999999988804 0  25 -1.099999999989427 0  25 -1.299999999989749 0  25 -1.499999999990411 0  25 -1.69999999999073 0  25 -1.899999999991396 0  25 -2.099999999991715 0  25 -2.299999999992381 0  25 -2.499999999993047 0  25 -2.699999999993714 0  25 -2.899999999994227 0  25 -3.099999999994698 0  25 -3.299999999994673 0  25 -3.499999999995339 0  25 -3.699999999996004 0  25 -3.89999999999667 0  25 -4.099999999997335 0  25 -4.299999999998002 0  25 -4.499999999998668 0  25 -4.699999999999335 0  24.80000000000034 -4.9 0  24.60000000000068 -4.9 0  24.40000000000101 -4.9 0  24.20000000000135 -4.9 0  24.00000000000169 -4.9 0  23.80000000000203 -4.9 0  23.60000000000237 -4.9 0  23.40000000000271 -4.9 0  23.20000000000304 -4.9 0  23.00000000000338 -4.9 0  22.80000000000372 -4.9 0  22.60000000000406 -4.9 0  22.40000000000439 -4.9 0  22.20000000000473 -4.9 0  22.00000000000507 -4.9 0  21.80000000000541 -4.9 0  21.60000000000575 -4.9 0  21.40000000000608 -4.9 0  21.20000000000642 -4.9 0  21.00000000000676 -4.9 0  20.8000000000071 -4.9 0  20.60000000000744 -4.9 0  20.40000000000777 -4.9 0  20.20000000000811 -4.9 0  20.00000000000845 -4.9 0  19.80000000000879 -4.9 0  19.60000000000912 -4.9 0  19.40000000000946 -4.9 0  19.2000000000098 -4.9 0  19.00000000001039 -4.9 0  18.80000000001108 -4.9 0  18.60000000001231 -4.9 0  18.40000000001371 -4.9 0  18.2000000000154 -4.9 0  18.00000000001716 -4.9 0  17.80000000001892 -4.9 0  17.60000000002067 -4.9 0  17.40000000002243 -4.9 0  17.20000000002419 -4.9 0  17.00000000002595 -4.9 0  16.80000000002771 -4.9 0  16.60000000002947 -4.9 0  16.40000000003123 -4.9 0  16.20000000003299 -4.9 0  16.00000000003472 -4.9 0  15.80000000003612 -4.9 0  15.60000000003748 -4.9 0  15.40000000003853 -4.9 0  15.20000000003958 -4.9 0  15.00000000004063 -4.9 0  14.80000000004168 -4.9 0  14.60000000004273 -4.9 0  14.40000000004377 -4.9 0  14.20000000004482 -4.9 0  14.00000000004587 -4.9 0  13.80000000004692 -4.9 0  13.60000000004797 -4.9 0  13.40000000004902 -4.9 0  13.20000000005007 -4.9 0  13.00000000005111 -4.9 0  12.80000000005216 -4.9 0  12.60000000005321 -4.9 0  12.40000000005426 -4.9 0  12.20000000005531 -4.9 0  12.00000000005636 -4.9 0  11.80000000005741 -4.9 0  11.60000000005846 -4.9 0  11.4000000000595 -4.9 0  11.20000000006055 -4.9 0  11.0000000000616 -4.9 0  10.80000000006265 -4.9 0  10.6000000000637 -4.9 0  10.40000000006475 -4.9 0  10.2000000000658 -4.9 0  10.00000000006684 -4.9 0  9.800000000067891 -4.9 0  9.60000000006894 -4.9 0  9.400000000069989 -4.9 0  9.200000000070727 -4.9 0  9.00000000007142 -4.9 0  8.800000000071787 -4.9 0  8.600000000072125 -4.9 0  8.400000000072467 -4.9 0  8.200000000072805 -4.9 0  8.000000000073143 -4.9 
[...]
<PointData  Vectors="f_7"> 
<DataArray  type="Float64"  Name="f_7"  NumberOfComponents="3" format="ascii">2.3759763241872615e-04 5.9000000000000003e-04 0.0000000000000000e+00  -2.3762839855027813e-04 5.9000000000000003e-04 0.0000000000000000e+00  0.0000000000000000e+00 0.0000000000000000e+00 0.0000000000000000e+00  0.0000000000000000e+00 0.0000000000000000e+00 0.0000000000000000e+00  3.3644777901668013e-05 2.9693992918314083e-04 0.0000000000000000e+00  -3.3258458644610042e-05 2.9173676373375540e-04 0.0000000000000000e+00  2.3407157224322240e-04 5.9000000000000003e-04 0.0000000000000000e+00  2.3052228572644593e-04 5.9000000000000003e-04 0.0000000000000000e+00  2.2695321141561416e-04 5.9000000000000003e-04 0.0000000000000000e+00  2.2331706360586930e-04 5.9000000000000003e-04 0.0000000000000000e+00  2.1966480318250732e-04 5.9000000000000003e-04 0.0000000000000000e+00  2.1596311357692047e-04 5.9000000000000003e-04 0.0000000000000000e+00  2.1223986750051296e-04 5.9000000000000003e-04 0.0000000000000000e+00  2.0847544104454852e-04 5.9000000000000003e-04 0.0000000000000000e+00  2.0470114185154546e-04 5.9000000000000003e-04 0.0000000000000000e+00  2.0089161197288111e-04 5.9000000000000003e-04 0.0000000000000000e+00  1.9706193349134789e-04 5.9000000000000003e-04 0.0000000000000000e+00  1.9322938537603453e-04 5.9000000000000003e-04 0.0000000000000000e+00  1.8935577312055924e-04 5.9000000000000003e-04 0.0000000000000000e+00  1.8548329459021416e-04 5.9000000000000003e-04 0.0000000000000000e+00  1.8160524044939349e-04 5.9000000000000003e-04 0.0000000000000000e+00  1.7772400224345258e-04 5.9000000000000003e-04 0.0000000000000000e+00  1.7381512260505264e-04 5.9000000000000003e-04 0.0000000000000000e+00  1.6991552829765996e-04 5.9000000000000003e-04 0.0000000000000000e+00  1.6602375651788816e-04 5.9000000000000003e-04 0.0000000000000000e+00  1.6211576120014635e-04 5.9000000000000003e-04 0.0000000000000000e+00  1.5821725840102767e-04 5.9000000000000003e-04 0.0000000000000000e+00  1.5432528279221933e-04 5.9000000000000003e-04 0.0000000000000000e+00  1.5044516123585816e-04 5.9000000000000003e-04 0.0000000000000000e+00  1.4657901715587983e-04 5.9000000000000003e-04 0.0000000000000000e+00  1.4270073753009209e-04 5.9000000000000003e-04 0.0000000000000000e+00  1.3884044437324918e-04 5.9000000000000003e-04 0.0000000000000000e+00  1.3499665246661201e-04 5.9000000000000003e-04 0.0000000000000000e+00  1.3116128562841862e-04 5.9000000000000003e-04 0.0000000000000000e+00  1.2733911343626737e-04 5.9000000000000003e-04 0.0000000000000000e+00  1.2353159260099336e-04 5.9000000000000003e-04 0.0000000000000000e+00  1.1973308449296970e-04 5.9000000000000003e-04 0.0000000000000000e+00  1.1594845285054201e-04 5.9000000000000003e-04 0.0000000000000000e+00  1.1217809693509665e-04 5.9000000000000003e-04 0.0000000000000000e+00  1.0842378306377349e-04 5.9000000000000003e-04 0.0000000000000000e+00  1.0466922249555420e-04 5.9000000000000003e-04 0.0000000000000000e+00  1.0093146989605447e-04 5.9000000000000003e-04 0.0000000000000000e+00  9.7201194530043962e-05 5.9000000000000003e-04 0.0000000000000000e+00  9.3482188454953246e-05 5.9000000000000003e-04 0.0000000000000000e+00  8.9765001540340262e-05 5.9000000000000003e-04 0.0000000000000000e+00  8.6055481391301714e-05 5.9000000000000003e-04 0.0000000000000000e+00  8.2351338370017184e-05 5.9000000000000003e-04 0.0000000000000000e+00  7.8648429255109075e-05 5.9000000000000003e-04 0.0000000000000000e+00  7.4944703205159039e-05 5.9000000000000003e-04 0.0000000000000000e+00  7.1238803104052524e-05 5.9000000000000003e-04 0.0000000000000000e+00  6.7527786582971872e-05 5.9000000000000003e-04 0.0000000000000000e+00  6.3810595062527601e-05 5.9000000000000003e-04 0.0000000000000000e+00  6.0086010076333533e-05 5.9000000000000003e-04 0.0000000000000000e+00  5.6349005740317603e-05 5.9000000000000003e-04 0.0000000000000000e+00  5.2598223781349463e-05 5.9000000000000003e-04 0.0000000000000000e+00  4.8835152750707722e-05 5.9000000000000003e-04 0.0000000000000000e+00  4.5053663744747462e-05 5.9000000000000003e-04 0.0000000000000000e+00  4.1253648397614584e-05 5.9000000000000003e-04 0.0000000000000000e+00  3.7434643950938221e-05 5.9000000000000003e-04 0.0000000000000000e+00  3.3588014592630501e-05 5.9000000000000003e-04 0.0000000000000000e+00  2.9731120973462097e-05 5.9000000000000003e-04 0.0000000000000000e+00  2.5851025231522143e-05 5.9000000000000003e-04 0.0000000000000000e+00  2.1951576492890010e-05 5.9000000000000003e-04 0.0000000000000000e+00  1.8032038977569608e-05 5.9000000000000003e-04 0.0000000000000000e+00  1.4101982841841141e-05 5.9000000000000003e-04 0.0000000000000000e+00  1.0156703588238983e-05 5.9000000000000003e-04 0.0000000000000000e+00  6.2265169841197351e-06 5.9000000000000003e-04 0.0000000000000000e+00  2.2974065420967816e-06 5.9000000000000003e-04 0.0000000000000000e+00  -1.6163964837840683e-06 5.9000000000000003e-04 0.0000000000000000e+00  -5.5094230229146211e-06 5.9000000000000003e-04 0.0000000000000000e+00  -9.3684237068948422e-06 5.9000000000000003e-04 0.0000000000000000e+00  -1.3153093076908369e-05 5.9000000000000003e-04 0.0000000000000000e+00  -1.6863757386923131e-05 5.9000000000000003e-04 0.0000000000000000e+00  -2.0457077924783201e-05 5.9000000000000003e-04 0.0000000000000000e+00  -2.3962149572154055e-05 5.9000000000000003e-04 0.0000000000000000e+00  -2.7368392393987450e-05 5.9000000000000003e-04 0.0000000000000000e+00  -3.0604089583941936e-05 5.9000000000000003e-04 0.0000000000000000e+00  -3.3634902933964146e-05 5.9000000000000003e-04 0.0000000000000000e+00  -3.6481862044842957e-05 5.9000000000000003e-04 0.0000000000000000e+00  -3.9166772171353284e-05 5.9000000000000003e-04 0.0000000000000000e+00  -4.1574655503899579e-05 5.9000000000000003e-04 0.0000000000000000e+00  -4.3789601550161595e-05 5.9000000000000003e-04 0.0000000000000000e+00  -4.5756777291965995e-05 5.9000000000000003e-04 0.0000000000000000e+00  -4.7450593356496073e-05 5.9000000000000003e-04 0.0000000000000000e+00  -4.8906856524017269e-05 5.9000000000000003e-04 0.0000000000000000e+00  -5.0132334080550713e-05 5.9000000000000003e-04 0.0000000000000000e+00  -5.1106535773348452e-05 5.9000000000000003e-04 0.0000000000000000e+00  -5.1832854332900337e-05 5.9000000000000003e-04 0.0000000000000000e+00  -5.2317160258508504e-05 5.9000000000000003e-04 0.0000000000000000e+00  -5.2572967948741996e-05 5.9000000000000003e-04 0.0000000000000000e+00  -5.2644580090874065e-05 5.9000000000000003e-04 0.0000000000000000e+00  -5.2532582182783689e-05 5.9000000000000003e-04 0.0000000000000000e+00  -5.2212376842411477e-05 5.9000000000000003e-04 0.0000000000000000e+00  -5.1703843348157167e-05 5.9000000000000003e-04 0.0000000000000000e+00  -5.1069053926130083e-05 5.9000000000000003e-04 0.0000000000000000e+00  -5.0297572777732426e-05 5.9000000000000003e-04 0.0000000000000000e+00  -4.9398588420530132e-05 5.9000000000000003e-04 0.0000000000000000e+00  -4.8354290177427183e-05 5.9000000000000003e-04 0.0000000000000000e+00  -4.7220558527722693e-05 5.9000000000000003e-04 0.0000000000000000e+00  -4.5995257150751142e-05 5.9000000000000003e-04 0.0000000000000000e+00  -4.4698502358045155e-05 5.9000000000000003e-04 0.0000000000000000e+00  -4.3301732185174372e-05 5.9000000000000003e-04 0.0000000000000000e+00  -4.1864570911690615e-05 5.9000000000000003e-04 0.0000000000000000e+00  -4.0380455032008387e-05 5.9000000000000003e-04 0.0000000000000000e+00  -3.8846128488951995e-05 5.9000000000000003e-04 0.0000000000000000e+00  -3.7276615739080281e-05 5.9000000000000003e-04 0.0000000000000000e+00  -3.5687604952277019e-05 5.9000000000000003e-04 0.0000000000000000e+00  -3.4084366728802729e-05 5.9000000000000003e-04 0.0000000000000000e+00  -3.2447009981291763e-05 5.9000000000000003e-04 0.0000000000000000e+00  -3.0816407013955069e-05 5.9000000000000003e-04 0.0000000000000000e+00  -2.9185743314227240e-05 5.9000000000000003e-04 0.0000000000000000e+00  -2.7558776429566510e-05 5.9000000000000003e-04 0.0000000000000000e+00  -2.5944099589906947e-05 5.9000000000000003e-04 0.0000000000000000e+00  -2.4330706907936826e-05 5.9000000000000003e-04 0.0000000000000000e+00  -2.2735110110734368e-05 5.9000000000000003e-04 0.0000000000000000e+00  -2.1155526015609512e-05 5.9000000000000003e-04 0.0000000000000000e+00  -1.9592046858918142e-05 5.9000000000000003e-04 0.0000000000000000e+00  -1.8048844126660990e-05 5.9000000000000003e-04 0.0000000000000000e+00  -1.6514226815389995e-05 5.9000000000000003e-04 0.0000000000000000e+00  -1.5001053491388901e-05 5.9000000000000003e-04 0.0000000000000000e+00  -1.3505009444605485e-05 5.9000000000000003e-04 0.0000000000000000e+00  -1.2026674606371016e-05 5.9000000000000003e-04 0.0000000000000000e+00  -1.0563787042156093e-05 5.9000000000000003e-04 0.0000000000000000e+00  -9.1177198376277808e-06 5.9000000000000003e-04 0.0000000000000000e+00  -7.6867983089993625e-06 5.9000000000000003e-04 0.0000000000000000e+00  -6.2701851728217631e-06 5.9000000000000003e-04 0.0000000000000000e+00  -4.8676530755335038e-06 5.9000000000000003e-04 0.0000000000000000e+00  -3.4779994234705345e-06 5.9000000000000003e-04 0.0000000000000000e+00  -2.1011303001921307e-06 5.9000000000000003e-04 0.0000000000000000e+00  -7.3385614774884619e-07 5.9000000000000003e-04 0.0000000000000000e+00  6.2280612139244134e-07 5.9000000000000003e-04 0.0000000000000000e+00  1.9699473713105062e-06 5.9000000000000003e-04 0.0000000000000000e+00  3.3079502522506657e-06 5.9000000000000003e-04 0.0000000000000000e+00  4.6401812763074301e-06 5.9000000000000003e-04 0.0000000000000000e+00  5.9682613309739229e-06 5.9000000000000003e-04 0.0000000000000000e+00  7.2884897096468787e-06 5.9000000000000003e-04 0.0000000000000000e+00  8.6076786691351240e-06 5.9000000000000003e-04 0.0000000000000000e+00  9.9263477846181154e-06 5.9000000000000003e-04 0.0000000000000000e+00  1.1246723270663200e-05 5.9000000000000003e-04 0.0000000000000000e+00  1.2573189937663972e-05 5.9000000000000003e-04 0.0000000000000000e+00  1.3900624567961025e-05 5.9000000000000003e-04 0.0000000000000000e+00  1.5237838001870683e-05 5.9000000000000003e-04 0.0000000000000000e+00  1.6584972885221626e-05 5.9000000000000003e-04 0.0000000000000000e+00  1.7945435413012257e-05 5.9000000000000003e-04 0.0000000000000000e+00  1.9319300601264061e-05 5.9000000000000003e-04 0.0000000000000000e+00  2.0710857892299470e-05 5.9000000000000003e-04 0.0000000000000000e+00  2.2115919200582472e-05 5.9000000000000003e-04 0.0000000000000000e+00  2.3542923016625370e-05 5.9000000000000003e-04 0.0000000000000000e+00  2.4992404395269862e-05 5.9000000000000003e-04 0.0000000000000000e+00  2.6449382573666120e-05 5.9000000000000003e-04 0.0000000000000000e+00  2.7931535631906576e-05 5.9000000000000003e-04 0.0000000000000000e+00  2.9433345261481623e-05 5.9000000000000003e-04 0.0000000000000000e+00  3.0943968444099137e-05 5.9000000000000003e-04 0.0000000000000000e+00  3.2467013192116120e-05 5.9000000000000003e-04 0.0000000000000000e+00  3.3996534012385145e-05 5.9000000000000003e-04 0.0000000000000000e+00  3.5541834606170318e-05 5.9000000000000003e-04 0.0000000000000000e+00  3.7063589079255631e-05 5.9000000000000003e-04 0.0000000000000000e+00  3.8577663279896325e-05 5.9000000000000003e-04 0.0000000000000000e+00  4.0076652490272771e-05 5.9000000000000003e-04 0.0000000000000000e+00  4.1558102631586468e-05 5.9000000000000003e-04 0.0000000000000000e+00  4.2981446396265215e-05 5.9000000000000003e-04 0.0000000000000000e+00  4.4364883069651187e-05 5.9000000000000003e-04 0.0000000000000000e+00  4.5684952781083757e-05 5.9000000000000003e-04 0.0000000000000000e+00  4.6931676651126455e-05 5.9000000000000003e-04 0.0000000000000000e+00  4.8096729107780893e-05 5.9000000000000003e-04 0.0000000000000000e+00  4.9131581373086535e-05 5.9000000000000003e-04 0.0000000000000000e+00  5.0043342884713049e-05 5.9000000000000003e-04 0.0000000000000000e+00  5.0796078298353240e-05 5.9000000000000003e-04 0.0000000000000000e+00  5.1441778729946843e-05 5.9000000000000003e-04 0.0000000000000000e+00  5.1891022001607101e-05 5.9000000000000003e-04 0.0000000000000000e+00  5.2138411369998878e-05 5.9000000000000003e-04 0.0000000000000000e+00  5.2207353408404331e-05 5.9000000000000003e-04 0.0000000000000000e+00  5.2023530688987112e-05 5.9000000000000003e-04 0.0000000000000000e+00  5.1675183082159875e-05 5.9000000000000003e-04 0.0000000000000000e+00  5.1071532949685265e-05 5.9000000000000003e-04 0.0000000000000000e+00  5.0175513788321390e-05 5.9000000000000003e-04 0.0000000000000000e+00  4.9001501964083811e-05 5.9000000000000003e-04 0.0000000000000000e+00  4.7595037977284099e-05 5.9000000000000003e-04 0.0000000000000000e+00  4.5912273504711951e-05 5.9000000000000003e-04 0.0000000000000000e+00  4.3961053411155166e-05 5.9000000000000003e-04 0.0000000000000000e+00  4.1774706665116570e-05 5.9000000000000003e-04 0.0000000000000000e+00  3.9327037587839909e-05 5.9000000000000003e-04 0.0000000000000000e+00  3.6741222326721723e-05 5.9000000000000003e-04 0.0000000000000000e+00  3.3860066452006540e-05 5.9000000000000003e-04 0.0000000000000000e+00  3.0797318743814942e-05 5.9000000000000003e-04 0.0000000000000000e+00  2.7564809363475158e-05 5.9000000000000003e-04 0.0000000000000000e+00  2.4172059921786390e-05 5.9000000000000003e-04 0.0000000000000000e+00  2.0665561990692792e-05 5.9000000000000003e-04 0.0000000000000000e+00  1.7017867613999711e-05 5.9000000000000003e-04 0.0000000000000000e+00  1.3300190695797337e-05 5.9000000000000003e-04 0.0000000000000000e+00  9.4880651703276149e-06 5.9000000000000003e-04 0.0000000000000000e+00  5.6279279410838888e-06 5.9000000000000003e-04 0.0000000000000000e+00  1.7292913923958280e-06 5.9000000000000003e-04 0.0000000000000000e+00  -2.1935913017895458e-06 5.9000000000000003e-04 0.0000000000000000e+00  -6.1453561397363493e-06 5.9000000000000003e-04 0.0000000000000000e+00  -1.0093333004637679e-05 5.9000000000000003e-04 0.0000000000000000e+00  -1.4043167038274523e-05 5.9000000000000003e-04 0.0000000000000000e+00  -1.7982653709848841e-05 5.9000000000000003e-04 0.0000000000000000e+00  -2.1908321114222839e-05 5.9000000000000003e-04 0.0000000000000000e+00  -2.5816487762625867e-05 5.9000000000000003e-04 0.0000000000000000e+00  -2.9705399503089177e-05 5.9000000000000003e-04 0.0000000000000000e+00  -3.3573167543233056e-05 5.9000000000000003e-04 0.0000000000000000e+00  -3.7418063937578830e-05 5.9000000000000003e-04 0.0000000000000000e+00  -4.1245288220759483e-05 5.9000000000000003e-04 0.0000000000000000e+00  -4.5050798529474902e-05 5.9000000000000003e-04 0.0000000000000000e+00  -4.8835687994365643e-05 5.9000000000000003e-04 0.0000000000000000e+00  -5.2605360233832424e-05 5.9000000000000003e-04 0.0000000000000000e+00  -5.6356674250846237e-05 5.9000000000000003e-04 0.0000000000000000e+00  -6.0096426228246831e-05 5.9000000000000003e-04 0.0000000000000000e+00  -6.3824455701614198e-05 5.9000000000000003e-04 0.0000000000000000e+00  -6.7544190755094801e-05 5.9000000000000003e-04 0.0000000000000000e+00  -7.1257055772668993e-05 5.9000000000000003e-04 0.0000000000000000e+00  -7.4963379459535835e-05 5.9000000000000003e-04 0.0000000000000000e+00  -7.8668624011978794e-05 5.9000000000000003e-04 0.0000000000000000e+00  -8.2374300616021030e-05 5.9000000000000003e-04 0.0000000000000000e+00  -8.6082885252515410e-05 5.9000000000000003e-04 0.0000000000000000e+00  -8.9794644790779906e-05 5.9000000000000003e-04 0.0000000000000000e+00  -9.3506399840255410e-05 5.9000000000000003e-04 0.0000000000000000e+00  -9.7227660011229449e-05 5.9000000000000003e-04 0.0000000000000000e+00  -1.0095834520759851e-04 5.9000000000000003e-04 0.0000000000000000e+00  -1.0470158103889366e-04 5.9000000000000003e-04 0.0000000000000000e+00  -1.0844543655213148e-04 5.9000000000000003e-04 0.0000000000000000e+00  -1.1220593204001272e-04 5.9000000000000003e-04 0.0000000000000000e+00  -1.1598183431611675e-04 5.9000000000000003e-04 0.0000000000000000e+00  -1.1976194079417162e-04 5.9000000000000003e-04 0.0000000000000000e+00  -1.2355848576716419e-04 5.9000000000000003e-04 0.0000000000000000e+00  -1.2736895045754656e-04 5.9000000000000003e-04 0.0000000000000000e+00  -1.3119436482139941e-04 5.9000000000000003e-04 0.0000000000000000e+00  -1.3502986960719203e-04 5.9000000000000003e-04 0.0000000000000000e+00  -1.3887314303155058e-04 5.9000000000000003e-04 0.0000000000000000e+00  -1.4272914031217753e-04 5.9000000000000003e-04 0.0000000000000000e+00  -1.4659919309084168e-04 5.9000000000000003e-04 0.0000000000000000e+00  -1.5047587823964462e-04 5.9000000000000003e-04 0.0000000000000000e+00  -1.5435956359701434e-04 5.9000000000000003e-04 0.0000000000000000e+00  -1.5825009723887193e-04 5.9000000000000003e-04 0.0000000000000000e+00  -1.6214854493391460e-04 5.9000000000000003e-04 0.0000000000000000e+00  -1.6604537290492141e-04 5.9000000000000003e-04 0.0000000000000000e+00  -1.6994852308759088e-04 5.9000000000000003e-04 0.0000000000000000e+00  -1.7384375035941167e-04 5.9000000000000003e-04 0.0000000000000000e+00  -1.7774205481032083e-04 5.9000000000000003e-04 0.0000000000000000e+00  -1.8163623509208010e-04 5.9000000000000003e-04 0.0000000000000000e+00  -1.8551680607052713e-04 5.9000000000000003e-04 0.0000000000000000e+00  -1.8938907087712821e-04 5.9000000000000003e-04 0.0000000000000000e+00  -1.9325022896127714e-04 5.9000000000000003e-04 0.0000000000000000e+00  -1.9709472778598863e-04 5.9000000000000003e-04 0.0000000000000000e+00  -2.0091751414612869e-04 5.9000000000000003e-04 0.0000000000000000e+00  -2.0473038903335954e-04 5.9000000000000003e-04 0.0000000000000000e+00  -2.0851372592811765e-04 5.9000000000000003e-04 0.0000000000000000e+00  -2.1226977904419066e-04 5.9000000000000003e-04 0.0000000000000000e+00  -2.1599659975382612e-04 5.9000000000000003e-04 0.0000000000000000e+00  -2.1968751676646424e-04 5.9000000000000003e-04 0.0000000000000000e+00  -2.2334787199664017e-04 5.9000000000000003e-04 0.0000000000000000e+00  -2.2697755559531062e-04 5.9000000000000003e-04 0.0000000000000000e+00  -2.3055194880610411e-04 5.9000000000000003e-04 0.0000000000000000e+00  -2.3410089531686304e-04 5.9000000000000003e-04 0.0000000000000000e+00  -2.3755477753996160e-04 5.7953856017125161e-04 0.0000000000000000e+00  -2.3735034021984589e-04 5.6907492572202739e-04 0.0000000000000000e+00  -2.3706208474180682e-04 5.5860903753255308e-04 0.0000000000000000e+00  -2.3661593693136642e-04 5.4814061152095434e-04 0.0000000000000000e+00  -2.3605770408401480e-04 5.3768523882382550e-04 0.0000000000000000e+00  -2.3534735398546093e-04 5.2720234735935628e-04 0.0000000000000000e+00  -2.3452597926338739e-04 5.1673896542548368e-04 0.0000000000000000e+00  -2.3357978257598877e-04 5.0625406045964807e-04 0.0000000000000000e+00  -2.3249014154120502e-04 4.9576803874465825e-04 0.0000000000000000e+00  -2.3126597085399895e-04 4.8529407353317601e-04 0.0000000000000000e+00  -2.2990951083475331e-04 4.7479104135131242e-04 0.0000000000000000e+00  -2.2841340730883324e-04 4.6428977099341023e-04 0.0000000000000000e+00  -2.2678261101039023e-04 4.5376823149799743e-04 0.0000000000000000e+00  -2.2500016357615831e-04 4.4326391172528522e-04 0.0000000000000000e+00  -2.2308175380911254e-04 4.3271627285011390e-04 0.0000000000000000e+00  -2.2100806338805679e-04 4.2214883194882473e-04 0.0000000000000000e+00  -2.1878009093980388e-04 4.1159122826945005e-04 0.0000000000000000e+00  -2.1639871834796124e-04 4.0099089239402298e-04 0.0000000000000000e+00  -2.1385124649862352e-04 3.9039613575560695e-04 0.0000000000000000e+00  -2.1114052124538967e-04 3.7976742853743252e-04 0.0000000000000000e+00  -2.0826806138594088e-04 3.6908347946362834e-04 0.0000000000000000e+00  -2.0521032127161033e-04 3.5841532279480624e-04 0.0000000000000000e+00  -2.0197988886486653e-04 3.4767737006645823e-04 0.0000000000000000e+00  -1.9855029242121222e-04 3.3692637735216853e-04 0.0000000000000000e+00  -1.9494780710444350e-04 3.2610968502611758e-04 0.0000000000000000e+00  -1.9112657121413902e-04 3.1528384374737489e-04 0.0000000000000000e+00  -1.8712285733927495e-04 3.0435377143848681e-04 0.0000000000000000e+00  -