<?xml version="1.0"?>
<VTKFile type="UnstructuredGrid"  version="0.1"  >
<UnstructuredGrid>
<Piece  NumberOfPoints="16512" NumberOfCells="32424">
<Points>
<DataArray  type="Float64"  NumberOfComponents="3"  format="ascii">-25 4.9 0  25 4.9 0  25 -4.9 0  -25 -4.9 0  -10 0 0  10 0 0  -24.80000000000034 4.9 0  -24.60000000000068 4.9 0  -24.40000000000101 4.9 0  -24.20000000000135 4.9 0  -24.00000000000169 4.9 0  -23.80000000000203 4.9 0  -23.60000000000237 4.9 0  -23.40000000000271 4.9 0  -23.20000000000304 4.9 0  -23.00000000000338 4.9 0  -22.80000000000372 4.9 0  -22.60000000000406 4.9 0  -22.40000000000439 4.9 0  -22.20000000000473 4.9 0  -22.00000000000507 4.9 0  -21.80000000000541 4.9 0  -21.60000000000575 4.9 0  -21.40000000000608 4.9 0  -21.20000000000642 4.9 0  -21.00000000000676 4.9 0  -20.8000000000071 4.9 0  -20.60000000000744 4.9 0  -20.40000000000777 4.9 0  -20.20000000000811 4.9 0  -20.00000000000845 4.9 0  -19.80000000000879 4.9 0  -19.60000000000912 4.9 0  -19.40000000000946 4.9 0  -19.2000000000098 4.9 0  -19.00000000001039 4.9 0  -18.80000000001108 4.9 0  -18.60000000001231 4.9 0  -18.40000000001371 4.9 0  -18.2000000000154 4.9 0  -18.00000000001716 4.9 0  -17.80000000001892 4.9 0  -17.60000000002067 4.9 0  -17.40000000002243 4.9 0  -17.20000000002419 4.9 0  -17.00000000002595 4.9 0  -16.80000000002771 4.9 0  -16.60000000002947 4.9 0  -16.40000000003123 4.9 0  -16.20000000003299 4.9 0  -16.00000000003472 4.9 0  -15.80000000003612 4.9 0  -15.60000000003748 4.9 0  -15.40000000003853 4.9 0  -15.20000000003958 4.9 0  -15.00000000004063 4.9 0  -14.80000000004168 4.9 0  -14.60000000004273 4.9 0  -14.40000000004377 4.9 0  -14.20000000004482 4.9 0  -14.00000000004587 4.9 0  -13.80000000004692 4.9 0  -13.60000000004797 4.9 0  -13.40000000004902 4.9 0  -13.20000000005007 4.9 0  -13.00000000005111 4.9 0  -12.80000000005216 4.9 0  -12.60000000005321 4.9 0  -12.40000000005426 4.9 0  -12.20000000005531 4.9 0  -12.00000000005636 4.9 0  -11.80000000005741 4.9 0  -11.60000000005846 4.9 0  -11.4000000000595 4.9 0  -11.20000000006055 4.9 0  -11.0000000000616 4.9 0  -10.80000000006265 4.9 0  -10.6000000000637 4.9 0  -10.40000000006475 4.9 0  -10.2000000000658 4.9 0  -10.00000000006684 4.9 0  -9.800000000067891 4.9 0  -9.60000000006894 4.9 0  -9.400000000069989 4.9 0  -9.200000000070727 4.9 0  -9.00000000007142 4.9 0  -8.800000000071787 4.9 0  -8.600000000072125 4.9 0  -8.400000000072467 4.9 0  -8.200000000072805 4.9 0  -8.000000000073143 4.9 0  -7.800000000073481 4.9 0  -7.60000000007382 4.9 0  -7.400000000074154 4.9 0  -7.200000000074493 4.9 0  -7.000000000074831 4.9 0  -6.800000000075173 4.9 0  -6.600000000075511 4.9 0  -6.400000000075849 4.9 0  -6.200000000076187 4.9 0  -6.000000000076525 4.9 0  -5.800000000076867 4.9 0  -5.600000000077205 4.9 0  -5.400000000077544 4.9 0  -5.200000000077882 4.9 0  -5.00000000007822 4.9 0  -4.800000000078558 4.9 0  -4.600000000078897 4.9 0  -4.400000000079235 4.9 0  -4.200000000079573 4.9 0  -4.000000000079908 4.9 0  -3.800000000080246 4.9 0  -3.600000000080588 4.9 0  -3.400000000080926 4.9 0  -3.200000000081264 4.9 0  -3.000000000081606 4.9 0  -2.800000000081944 4.9 0  -2.600000000082282 4.9 0  -2.40000000008262 4.9 0  -2.200000000082959 4.9 0  -2.000000000083297 4.9 0  -1.800000000083635 4.9 0  -1.600000000083973 4.9 0  -1.400000000084312 4.9 0  -1.20000000008465 4.9 0  -1.000000000084988 4.9 0  -0.8000000000853262 4.9 0  -0.6000000000856645 4.9 0  -0.4000000000860027 4.9 0  -0.2000000000863409 4.9 0  -8.667910833537462e-11 4.9 0  0.1999999999129827 4.9 0  0.3999999999126409 4.9 0  0.5999999999123027 4.9 0  0.7999999999119716 4.9 0  0.9999999999116262 4.9 0  1.199999999911295 4.9 0  1.39999999991095 4.9 0  1.599999999910619 4.9 0  1.799999999910273 4.9 0  1.999999999909939 4.9 0  2.199999999909597 4.9 0  2.399999999909262 4.9 0  2.599999999908921 4.9 0  2.799999999908582 4.9 0  2.999999999908244 4.9 0  3.199999999907906 4.9 0  3.399999999907564 4.9 0  3.599999999907226 4.9 0  3.799999999906888 4.9 0  3.999999999906549 4.9 0  4.199999999906218 4.9 0  4.399999999905873 4.9 0  4.599999999905542 4.9 0  4.799999999905197 4.9 0  4.999999999904865 4.9 0  5.19999999990452 4.9 0  5.399999999904182 4.9 0  5.599999999903844 4.9 0  5.799999999903505 4.9 0  5.999999999903167 4.9 0  6.199999999902829 4.9 0  6.399999999902491 4.9 0  6.599999999902153 4.9 0  6.799999999902379 4.9 0  6.999999999902752 4.9 0  7.199999999903724 4.9 0  7.399999999904807 4.9 0  7.59999999990589 4.9 0  7.799999999906966 4.9 0  7.999999999908056 4.9 0  8.199999999909132 4.9 0  8.399999999910214 4.9 0  8.59999999991129 4.9 0  8.79999999991238 4.9 0  8.999999999913456 4.9 0  9.199999999914539 4.9 0  9.399999999915622 4.9 0  9.599999999916704 4.9 0  9.79999999991778 4.9 0  9.99999999991887 4.9 0  10.19999999991995 4.9 0  10.39999999992103 4.9 0  10.59999999992212 4.9 0  10.79999999992319 4.9 0  10.99999999992428 4.9 0  11.19999999992536 4.9 0  11.39999999992644 4.9 0  11.59999999992752 4.9 0  11.7999999999286 4.9 0  11.99999999992968 4.9 0  12.19999999993077 4.9 0  12.39999999993184 4.9 0  12.59999999993293 4.9 0  12.79999999993401 4.9 0  12.99999999993509 4.9 0  13.19999999993617 4.9 0  13.39999999993726 4.9 0  13.59999999993834 4.9 0  13.79999999993942 4.9 0  13.99999999994051 4.9 0  14.19999999994158 4.9 0  14.39999999994266 4.9 0  14.59999999994375 4.9 0  14.79999999994483 4.9 0  14.99999999994591 4.9 0  15.199999999947 4.9 0  15.39999999994807 4.9 0  15.59999999994915 4.9 0  15.79999999995024 4.9 0  15.99999999995132 4.9 0  16.1999999999524 4.9 0  16.39999999995349 4.9 0  16.59999999995456 4.9 0  16.79999999995565 4.9 0  16.99999999995674 4.9 0  17.19999999995781 4.9 0  17.39999999995889 4.9 0  17.59999999995997 4.9 0  17.79999999996106 4.9 0  17.99999999996214 4.9 0  18.19999999996322 4.9 0  18.3999999999643 4.9 0  18.59999999996538 4.9 0  18.79999999996646 4.9 0  18.99999999996755 4.9 0  19.19999999996863 4.9 0  19.39999999996971 4.9 0  19.59999999997079 4.9 0  19.79999999997187 4.9 0  19.99999999997296 4.9 0  20.19999999997404 4.9 0  20.39999999997512 4.9 0  20.5999999999762 4.9 0  20.79999999997728 4.9 0  20.99999999997836 4.9 0  21.19999999997945 4.9 0  21.39999999998052 4.9 0  21.59999999998161 4.9 0  21.79999999998269 4.9 0  21.99999999998377 4.9 0  22.19999999998485 4.9 0  22.39999999998594 4.9 0  22.59999999998701 4.9 0  22.7999999999881 4.9 0  22.99999999998919 4.9 0  23.19999999999026 4.9 0  23.39999999999135 4.9 0  23.59999999999243 4.9 0  23.79999999999351 4.9 0  23.99999999999459 4.9 0  24.19999999999568 4.9 0  24.39999999999675 4.9 0  24.59999999999783 4.9 0  24.79999999999892 4.9 0  25 4.700000000000415 0  25 4.500000000000868 0  25 4.300000000001562 0  25 4.100000000001831 0  25 3.900000000002072 0  25 3.700000000002459 0  25 3.500000000003038 0  25 3.300000000003653 0  25 3.100000000004294 0  25 2.900000000004838 0  25 2.700000000005293 0  25 2.500000000005957 0  25 2.300000000006508 0  25 2.100000000007153 0  25 1.900000000007722 0  25 1.700000000008417 0  25 1.500000000008938 0  25 1.30000000000963 0  25 1.100000000010154 0  25 0.9000000000108268 0  25 0.7000000000114559 0  25 0.5000000000119762 0  25 0.3000000000126564 0  25 0.1000000000131926 0  25 -0.09999999998679243 0  25 -0.2999999999874587 0  25 -0.4999999999878586 0  25 -0.6999999999884441 0  25 -0.899999999988804 0  25 -1.099999999989427 0  25 -1.299999999989749 0  25 -1.499999999990411 0  25 -1.69999999999073 0  25 -1.899999999991396 0  25 -2.099999999991715 0  25 -2.299999999992381 0  25 -2.499999999993047 0  25 -2.699999999993714 0  25 -2.899999999994227 0  25 -3.099999999994698 0  25 -3.299999999994673 0  25 -3.499999999995339 0  25 -3.699999999996004 0  25 -3.89999999999667 0  25 -4.099999999997335 0  25 -4.299999999998002 0  25 -4.499999999998668 0  25 -4.699999999999335 0  24.80000000000034 -4.9 0  24.60000000000068 -4.9 0  24.40000000000101 -4.9 0  24.20000000000135 -4.9 0  24.00000000000169 -4.9 0  23.80000000000203 -4.9 0  23.60000000000237 -4.9 0  23.40000000000271 -4.9 0  23.20000000000304 -4.9 0  23.00000000000338 -4.9 0  22.80000000000372 -4.9 0  22.60000000000406 -4.9 0  22.40000000000439 -4.9 0  22.20000000000473 -4.9 0  22.00000000000507 -4.9 0  21.80000000000541 -4.9 0  21.60000000000575 -4.9 0  21.40000000000608 -4.9 0  21.20000000000642 -4.9 0  21.00000000000676 -4.9 0  20.8000000000071 -4.9 0  20.60000000000744 -4.9 0  20.40000000000777 -4.9 0  20.20000000000811 -4.9 0  20.00000000000845 -4.9 0  19.80000000000879 -4.9 0  19.60000000000912 -4.9 0  19.40000000000946 -4.9 0  19.2000000000098 -4.9 0  19.00000000001039 -4.9 0  18.80000000001108 -4.9 0  18.60000000001231 -4.9 0  18.40000000001371 -4.9 0  18.2000000000154 -4.9 0  18.00000000001716 -4.9 0  17.80000000001892 -4.9 0  17.60000000002067 -4.9 0  17.40000000002243 -4.9 0  17.20000000002419 -4.9 0  17.00000000002595 -4.9 0  16.80000000002771 -4.9 0  16.60000000002947 -4.9 0  16.40000000003123 -4.9 0  16.20000000003299 -4.9 0  16.00000000003472 -4.9 0  15.80000000003612 -4.9 0  15.60000000003748 -4.9 0  15.40000000003853 -4.9 0  15.20000000003958 -4.9 0  15.00000000004063 -4.9 0  14.80000000004168 -4.9 0  14.60000000004273 -4.9 0  14.40000000004377 -4.9 0  14.20000000004482 -4.9 0  14.00000000004587 -4.9 0  13.80000000004692 -4.9 0  13.60000000004797 -4.9 0  13.40000000004902 -4.9 0  13.20000000005007 -4.9 0  13.00000000005111 -4.9 0  12.80000000005216 -4.9 0  12.60000000005321 -4.9 0  12.40000000005426 -4.9 0  12.20000000005531 -4.9 0  12.00000000005636 -4.9 0  11.80000000005741 -4.9 0  11.60000000005846 -4.9 0  11.4000000000595 -4.9 0  11.20000000006055 -4.9 0  11.0000000000616 -4.9 0  10.80000000006265 -4.9 0  10.6000000000637 -4.9 0  10.40000000006475 -4.9 0  10.2000000000658 -4.9 0  10.00000000006684 -4.9 0  9.800000000067891 -4.9 0  9.60000000006894 -4.9 0  9.400000000069989 -4.9 0  9.200000000070727 -4.9 0  9.00000000007142 -4.9 0  8.800000000071787 -4.9 0  8.600000000072125 -4.9 0  8.400000000072467 -4.9 0  8.200000000072805 -4.9 0  8.000000000073143 -4.9 
[...]
<PointData  Vectors="f_7"> 
<DataArray  type="Float64"  Name="f_7"  NumberOfComponents="3" format="ascii">2.8677033539475390e-04 7.3499999999999998e-04 0.0000000000000000e+00  -2.8670452252113279e-04 7.3499999999999998e-04 0.0000000000000000e+00  0.0000000000000000e+00 0.0000000000000000e+00 0.0000000000000000e+00  0.0000000000000000e+00 0.0000000000000000e+00 0.0000000000000000e+00  4.0242535463830663e-05 3.6896534906576475e-04 0.0000000000000000e+00  -4.0841158641868635e-05 3.5990313031502777e-04 0.0000000000000000e+00  2.8233741840835675e-04 7.3499999999999998e-04 0.0000000000000000e+00  2.7787693030354539e-04 7.3499999999999998e-04 0.0000000000000000e+00  2.7339281286807121e-04 7.3499999999999998e-04 0.0000000000000000e+00  2.6882918360665115e-04 7.3499999999999998e-04 0.0000000000000000e+00  2.6424537308885015e-04 7.3499999999999998e-04 0.0000000000000000e+00  2.5960225268802664e-04 7.3499999999999998e-04 0.0000000000000000e+00  2.5493203416630865e-04 7.3499999999999998e-04 0.0000000000000000e+00  2.5021132445321096e-04 7.3499999999999998e-04 0.0000000000000000e+00  2.4547722236935331e-04 7.3499999999999998e-04 0.0000000000000000e+00  2.4069920052082245e-04 7.3499999999999998e-04 0.0000000000000000e+00  2.3589497767007668e-04 7.3499999999999998e-04 0.0000000000000000e+00  2.3108510289269416e-04 7.3499999999999998e-04 0.0000000000000000e+00  2.2622389824058570e-04 7.3499999999999998e-04 0.0000000000000000e+00  2.2136137505468053e-04 7.3499999999999998e-04 0.0000000000000000e+00  2.1648963702323944e-04 7.3499999999999998e-04 0.0000000000000000e+00  2.1161113617626097e-04 7.3499999999999998e-04 0.0000000000000000e+00  2.0669677532754446e-04 7.3499999999999998e-04 0.0000000000000000e+00  2.0178990729168068e-04 7.3499999999999998e-04 0.0000000000000000e+00  1.9688950697246648e-04 7.3499999999999998e-04 0.0000000000000000e+00  1.9196614399968231e-04 7.3499999999999998e-04 0.0000000000000000e+00  1.8705021002957025e-04 7.3499999999999998e-04 0.0000000000000000e+00  1.8213834368197118e-04 7.3499999999999998e-04 0.0000000000000000e+00  1.7723647619365178e-04 7.3499999999999998e-04 0.0000000000000000e+00  1.7234729266460313e-04 7.3499999999999998e-04 0.0000000000000000e+00  1.6743991191607140e-04 7.3499999999999998e-04 0.0000000000000000e+00  1.6254888168552148e-04 7.3499999999999998e-04 0.0000000000000000e+00  1.5767284765669771e-04 7.3499999999999998e-04 0.0000000000000000e+00  1.5280204738228511e-04 7.3499999999999998e-04 0.0000000000000000e+00  1.4794190739898889e-04 7.3499999999999998e-04 0.0000000000000000e+00  1.4309361775661386e-04 7.3499999999999998e-04 0.0000000000000000e+00  1.3825033949796533e-04 7.3499999999999998e-04 0.0000000000000000e+00  1.3341743551069496e-04 7.3499999999999998e-04 0.0000000000000000e+00  1.2859572208565154e-04 7.3499999999999998e-04 0.0000000000000000e+00  1.2378589204009336e-04 7.3499999999999998e-04 0.0000000000000000e+00  1.1897011066232168e-04 7.3499999999999998e-04 0.0000000000000000e+00  1.1416605922416701e-04 7.3499999999999998e-04 0.0000000000000000e+00  1.0936321703507604e-04 7.3499999999999998e-04 0.0000000000000000e+00  1.0456479713525335e-04 7.3499999999999998e-04 0.0000000000000000e+00  9.9761196646304691e-05 7.3499999999999998e-04 0.0000000000000000e+00  9.4957193491148050e-05 7.3499999999999998e-04 0.0000000000000000e+00  9.0149620578618191e-05 7.3499999999999998e-04 0.0000000000000000e+00  8.5333248363009606e-05 7.3499999999999998e-04 0.0000000000000000e+00  8.0505130270788788e-05 7.3499999999999998e-04 0.0000000000000000e+00  7.5663400954851213e-05 7.3499999999999998e-04 0.0000000000000000e+00  7.0803906343602742e-05 7.3499999999999998e-04 0.0000000000000000e+00  6.5924456628325173e-05 7.3499999999999998e-04 0.0000000000000000e+00  6.1024014072780244e-05 7.3499999999999998e-04 0.0000000000000000e+00  5.6094479450372852e-05 7.3499999999999998e-04 0.0000000000000000e+00  5.1133739356190325e-05 7.3499999999999998e-04 0.0000000000000000e+00  4.6145333140626047e-05 7.3499999999999998e-04 0.0000000000000000e+00  4.1119722392870536e-05 7.3499999999999998e-04 0.0000000000000000e+00  3.6058436253003488e-05 7.3499999999999998e-04 0.0000000000000000e+00  3.0959577663642004e-05 7.3499999999999998e-04 0.0000000000000000e+00  2.5808467251848413e-05 7.3499999999999998e-04 0.0000000000000000e+00  2.0637743872113367e-05 7.3499999999999998e-04 0.0000000000000000e+00  1.5423794973792054e-05 7.3499999999999998e-04 0.0000000000000000e+00  1.0174198040994893e-05 7.3499999999999998e-04 0.0000000000000000e+00  4.8876956636925035e-06 7.3499999999999998e-04 0.0000000000000000e+00  -4.1912427049677941e-07 7.3499999999999998e-04 0.0000000000000000e+00  -5.7540958905167331e-06 7.3499999999999998e-04 0.0000000000000000e+00  -1.1067330086068262e-05 7.3499999999999998e-04 0.0000000000000000e+00  -1.6381673569162205e-05 7.3499999999999998e-04 0.0000000000000000e+00  -2.1673625917907261e-05 7.3499999999999998e-04 0.0000000000000000e+00  -2.6934449965087058e-05 7.3499999999999998e-04 0.0000000000000000e+00  -3.2142301499874442e-05 7.3499999999999998e-04 0.0000000000000000e+00  -3.7232771885386160e-05 7.3499999999999998e-04 0.0000000000000000e+00  -4.2206019942806401e-05 7.3499999999999998e-04 0.0000000000000000e+00  -4.6993332277938341e-05 7.3499999999999998e-04 0.0000000000000000e+00  -5.1639431393294139e-05 7.3499999999999998e-04 0.0000000000000000e+00  -5.6127668385333523e-05 7.3499999999999998e-04 0.0000000000000000e+00  -6.0344156093496788e-05 7.3499999999999998e-04 0.0000000000000000e+00  -6.4234547293028790e-05 7.3499999999999998e-04 0.0000000000000000e+00  -6.7831436848230368e-05 7.3499999999999998e-04 0.0000000000000000e+00  -7.1168461305679860e-05 7.3499999999999998e-04 0.0000000000000000e+00  -7.4068747732569827e-05 7.3499999999999998e-04 0.0000000000000000e+00  -7.6661553904411829e-05 7.3499999999999998e-04 0.0000000000000000e+00  -7.8862306591899768e-05 7.3499999999999998e-04 0.0000000000000000e+00  -8.0634405538969946e-05 7.3499999999999998e-04 0.0000000000000000e+00  -8.2035212947654149e-05 7.3499999999999998e-04 0.0000000000000000e+00  -8.3078028213854206e-05 7.3499999999999998e-04 0.0000000000000000e+00  -8.3735281729226682e-05 7.3499999999999998e-04 0.0000000000000000e+00  -8.4016990532693509e-05 7.3499999999999998e-04 0.0000000000000000e+00  -8.3937350181618274e-05 7.3499999999999998e-04 0.0000000000000000e+00  -8.3524583862394801e-05 7.3499999999999998e-04 0.0000000000000000e+00  -8.2847314513664395e-05 7.3499999999999998e-04 0.0000000000000000e+00  -8.1913517587610521e-05 7.3499999999999998e-04 0.0000000000000000e+00  -8.0696696797464361e-05 7.3499999999999998e-04 0.0000000000000000e+00  -7.9235795105248524e-05 7.3499999999999998e-04 0.0000000000000000e+00  -7.7619734389683495e-05 7.3499999999999998e-04 0.0000000000000000e+00  -7.5839780491334028e-05 7.3499999999999998e-04 0.0000000000000000e+00  -7.3917930129261864e-05 7.3499999999999998e-04 0.0000000000000000e+00  -7.1836149625342520e-05 7.3499999999999998e-04 0.0000000000000000e+00  -6.9671520961350262e-05 7.3499999999999998e-04 0.0000000000000000e+00  -6.7425629012778589e-05 7.3499999999999998e-04 0.0000000000000000e+00  -6.5126222906133601e-05 7.3499999999999998e-04 0.0000000000000000e+00  -6.2747683802708414e-05 7.3499999999999998e-04 0.0000000000000000e+00  -6.0353678557857699e-05 7.3499999999999998e-04 0.0000000000000000e+00  -5.7942052546579455e-05 7.3499999999999998e-04 0.0000000000000000e+00  -5.5512637950814984e-05 7.3499999999999998e-04 0.0000000000000000e+00  -5.3080096277351461e-05 7.3499999999999998e-04 0.0000000000000000e+00  -5.0660134259289341e-05 7.3499999999999998e-04 0.0000000000000000e+00  -4.8259399833792147e-05 7.3499999999999998e-04 0.0000000000000000e+00  -4.5854840559847426e-05 7.3499999999999998e-04 0.0000000000000000e+00  -4.3487013882595600e-05 7.3499999999999998e-04 0.0000000000000000e+00  -4.1148690733546742e-05 7.3499999999999998e-04 0.0000000000000000e+00  -3.8843510938634257e-05 7.3499999999999998e-04 0.0000000000000000e+00  -3.6575392140978002e-05 7.3499999999999998e-04 0.0000000000000000e+00  -3.4333652242554988e-05 7.3499999999999998e-04 0.0000000000000000e+00  -3.2129983106366738e-05 7.3499999999999998e-04 0.0000000000000000e+00  -2.9964005148587729e-05 7.3499999999999998e-04 0.0000000000000000e+00  -2.7832721615027343e-05 7.3499999999999998e-04 0.0000000000000000e+00  -2.5737996566135770e-05 7.3499999999999998e-04 0.0000000000000000e+00  -2.3666856697250836e-05 7.3499999999999998e-04 0.0000000000000000e+00  -2.1631160576080258e-05 7.3499999999999998e-04 0.0000000000000000e+00  -1.9623178769640186e-05 7.3499999999999998e-04 0.0000000000000000e+00  -1.7644309782477759e-05 7.3499999999999998e-04 0.0000000000000000e+00  -1.5688925961020028e-05 7.3499999999999998e-04 0.0000000000000000e+00  -1.3758178108119005e-05 7.3499999999999998e-04 0.0000000000000000e+00  -1.1848403653991707e-05 7.3499999999999998e-04 0.0000000000000000e+00  -9.9572612552792542e-06 7.3499999999999998e-04 0.0000000000000000e+00  -8.0832721550447200e-06 7.3499999999999998e-04 0.0000000000000000e+00  -6.2237353461816050e-06 7.3499999999999998e-04 0.0000000000000000e+00  -4.3761002206954419e-06 7.3499999999999998e-04 0.0000000000000000e+00  -2.5368681864790338e-06 7.3499999999999998e-04 0.0000000000000000e+00  -7.0553194124696706e-07 7.3499999999999998e-04 0.0000000000000000e+00  1.1203279353471974e-06 7.3499999999999998e-04 0.0000000000000000e+00  2.9442391032570175e-06 7.3499999999999998e-04 0.0000000000000000e+00  4.7682684953525676e-06 7.3499999999999998e-04 0.0000000000000000e+00  6.5956135414594975e-06 7.3499999999999998e-04 0.0000000000000000e+00  8.4268016577268279e-06 7.3499999999999998e-04 0.0000000000000000e+00  1.0266993313407462e-05 7.3499999999999998e-04 0.0000000000000000e+00  1.2118722998691537e-05 7.3499999999999998e-04 0.0000000000000000e+00  1.3986076494902322e-05 7.3499999999999998e-04 0.0000000000000000e+00  1.5871770660355204e-05 7.3499999999999998e-04 0.0000000000000000e+00  1.7774031713780459e-05 7.3499999999999998e-04 0.0000000000000000e+00  1.9700537878998307e-05 7.3499999999999998e-04 0.0000000000000000e+00  2.1653712408273220e-05 7.3499999999999998e-04 0.0000000000000000e+00  2.3636385790965128e-05 7.3499999999999998e-04 0.0000000000000000e+00  2.5650151781129128e-05 7.3499999999999998e-04 0.0000000000000000e+00  2.7699540302738880e-05 7.3499999999999998e-04 0.0000000000000000e+00  2.9781634895424230e-05 7.3499999999999998e-04 0.0000000000000000e+00  3.1905552224464656e-05 7.3499999999999998e-04 0.0000000000000000e+00  3.4070646332267428e-05 7.3499999999999998e-04 0.0000000000000000e+00  3.6265440808640077e-05 7.3499999999999998e-04 0.0000000000000000e+00  3.8506660658273355e-05 7.3499999999999998e-04 0.0000000000000000e+00  4.0788564608565172e-05 7.3499999999999998e-04 0.0000000000000000e+00  4.3106070422894367e-05 7.3499999999999998e-04 0.0000000000000000e+00  4.5460344760997740e-05 7.3499999999999998e-04 0.0000000000000000e+00  4.7844523494022726e-05 7.3499999999999998e-04 0.0000000000000000e+00  5.0277369533121029e-05 7.3499999999999998e-04 0.0000000000000000e+00  5.2706969539949633e-05 7.3499999999999998e-04 0.0000000000000000e+00  5.5158705086184760e-05 7.3499999999999998e-04 0.0000000000000000e+00  5.7622805708948552e-05 7.3499999999999998e-04 0.0000000000000000e+00  6.0093184760314431e-05 7.3499999999999998e-04 0.0000000000000000e+00  6.2529287677933582e-05 7.3499999999999998e-04 0.0000000000000000e+00  6.4945434944558745e-05 7.3499999999999998e-04 0.0000000000000000e+00  6.7313445707641189e-05 7.3499999999999998e-04 0.0000000000000000e+00  6.9620709827174741e-05 7.3499999999999998e-04 0.0000000000000000e+00  7.1854541106938289e-05 7.3499999999999998e-04 0.0000000000000000e+00  7.3947306094967802e-05 7.3499999999999998e-04 0.0000000000000000e+00  7.5906572346067338e-05 7.3499999999999998e-04 0.0000000000000000e+00  7.7677900637694450e-05 7.3499999999999998e-04 0.0000000000000000e+00  7.9321137072879965e-05 7.3499999999999998e-04 0.0000000000000000e+00  8.0715062738059731e-05 7.3499999999999998e-04 0.0000000000000000e+00  8.1843109834289798e-05 7.3499999999999998e-04 0.0000000000000000e+00  8.2729555909441134e-05 7.3499999999999998e-04 0.0000000000000000e+00  8.3263411714227102e-05 7.3499999999999998e-04 0.0000000000000000e+00  8.3563405932262670e-05 7.3499999999999998e-04 0.0000000000000000e+00  8.3493065129650325e-05 7.3499999999999998e-04 0.0000000000000000e+00  8.2988468980133440e-05 7.3499999999999998e-04 0.0000000000000000e+00  8.2065978591668943e-05 7.3499999999999998e-04 0.0000000000000000e+00  8.0785808912940883e-05 7.3499999999999998e-04 0.0000000000000000e+00  7.9077105200211324e-05 7.3499999999999998e-04 0.0000000000000000e+00  7.6947834389921583e-05 7.3499999999999998e-04 0.0000000000000000e+00  7.4445459199243161e-05 7.3499999999999998e-04 0.0000000000000000e+00  7.1529426745183013e-05 7.3499999999999998e-04 0.0000000000000000e+00  6.8388587209284652e-05 7.3499999999999998e-04 0.0000000000000000e+00  6.4777664019359050e-05 7.3499999999999998e-04 0.0000000000000000e+00  6.0872126797086430e-05 7.3499999999999998e-04 0.0000000000000000e+00  5.6690698026933578e-05 7.3499999999999998e-04 0.0000000000000000e+00  5.2248722797885907e-05 7.3499999999999998e-04 0.0000000000000000e+00  4.7620318715413288e-05 7.3499999999999998e-04 0.0000000000000000e+00  4.2762900808944956e-05 7.3499999999999998e-04 0.0000000000000000e+00  3.7789810639771774e-05 7.3499999999999998e-04 0.0000000000000000e+00  3.2662277125321118e-05 7.3499999999999998e-04 0.0000000000000000e+00  2.7456260915880667e-05 7.3499999999999998e-04 0.0000000000000000e+00  2.2187037202926215e-05 7.3499999999999998e-04 0.0000000000000000e+00  1.6878676826693727e-05 7.3499999999999998e-04 0.0000000000000000e+00  1.1523665261645278e-05 7.3499999999999998e-04 0.0000000000000000e+00  6.1758624760749356e-06 7.3499999999999998e-04 0.0000000000000000e+00  8.2645668764538516e-07 7.3499999999999998e-04 0.0000000000000000e+00  -4.5037195276647862e-06 7.3499999999999998e-04 0.0000000000000000e+00  -9.8087419487740949e-06 7.3499999999999998e-04 0.0000000000000000e+00  -1.5081766555632452e-05 7.3499999999999998e-04 0.0000000000000000e+00  -2.0319613310667494e-05 7.3499999999999998e-04 0.0000000000000000e+00  -2.5518088958713617e-05 7.3499999999999998e-04 0.0000000000000000e+00  -3.0673648556331933e-05 7.3499999999999998e-04 0.0000000000000000e+00  -3.5796781891152776e-05 7.3499999999999998e-04 0.0000000000000000e+00  -4.0875939460451141e-05 7.3499999999999998e-04 0.0000000000000000e+00  -4.5913335706886998e-05 7.3499999999999998e-04 0.0000000000000000e+00  -5.0921559346220020e-05 7.3499999999999998e-04 0.0000000000000000e+00  -5.5890817488124464e-05 7.3499999999999998e-04 0.0000000000000000e+00  -6.0832636408380811e-05 7.3499999999999998e-04 0.0000000000000000e+00  -6.5746344353092906e-05 7.3499999999999998e-04 0.0000000000000000e+00  -7.0636435092721094e-05 7.3499999999999998e-04 0.0000000000000000e+00  -7.5505325518132946e-05 7.3499999999999998e-04 0.0000000000000000e+00  -8.0353508464597569e-05 7.3499999999999998e-04 0.0000000000000000e+00  -8.5189083597920877e-05 7.3499999999999998e-04 0.0000000000000000e+00  -9.0013817899265236e-05 7.3499999999999998e-04 0.0000000000000000e+00  -9.4831058460181548e-05 7.3499999999999998e-04 0.0000000000000000e+00  -9.9642128760558875e-05 7.3499999999999998e-04 0.0000000000000000e+00  -1.0444486353804696e-04 7.3499999999999998e-04 0.0000000000000000e+00  -1.0924883727630502e-04 7.3499999999999998e-04 0.0000000000000000e+00  -1.1405581775114483e-04 7.3499999999999998e-04 0.0000000000000000e+00  -1.1886921406249084e-04 7.3499999999999998e-04 0.0000000000000000e+00  -1.2367702226641757e-04 7.3499999999999998e-04 0.0000000000000000e+00  -1.2849658416499746e-04 7.3499999999999998e-04 0.0000000000000000e+00  -1.3332703173396244e-04 7.3499999999999998e-04 0.0000000000000000e+00  -1.3815650149414681e-04 7.3499999999999998e-04 0.0000000000000000e+00  -1.4299932912537226e-04 7.3499999999999998e-04 0.0000000000000000e+00  -1.4785307566361248e-04 7.3499999999999998e-04 0.0000000000000000e+00  -1.5271914198551249e-04 7.3499999999999998e-04 0.0000000000000000e+00  -1.5759187865970647e-04 7.3499999999999998e-04 0.0000000000000000e+00  -1.6246840412722740e-04 7.3499999999999998e-04 0.0000000000000000e+00  -1.6735566795991091e-04 7.3499999999999998e-04 0.0000000000000000e+00  -1.7225521217773744e-04 7.3499999999999998e-04 0.0000000000000000e+00  -1.7715789442946381e-04 7.3499999999999998e-04 0.0000000000000000e+00  -1.8206482745281542e-04 7.3499999999999998e-04 0.0000000000000000e+00  -1.8697572625641897e-04 7.3499999999999998e-04 0.0000000000000000e+00  -1.9189248042431167e-04 7.3499999999999998e-04 0.0000000000000000e+00  -1.9680349214859860e-04 7.3499999999999998e-04 0.0000000000000000e+00  -2.0171835715260348e-04 7.3499999999999998e-04 0.0000000000000000e+00  -2.0662066367910212e-04 7.3499999999999998e-04 0.0000000000000000e+00  -2.1152325756306945e-04 7.3499999999999998e-04 0.0000000000000000e+00  -2.1641782443624044e-04 7.3499999999999998e-04 0.0000000000000000e+00  -2.2129314614820493e-04 7.3499999999999998e-04 0.0000000000000000e+00  -2.2615580387225212e-04 7.3499999999999998e-04 0.0000000000000000e+00  -2.3100265652198617e-04 7.3499999999999998e-04 0.0000000000000000e+00  -2.3582717151555982e-04 7.3499999999999998e-04 0.0000000000000000e+00  -2.4062345090277600e-04 7.3499999999999998e-04 0.0000000000000000e+00  -2.4540590510387496e-04 7.3499999999999998e-04 0.0000000000000000e+00  -2.5015120651353451e-04 7.3499999999999998e-04 0.0000000000000000e+00  -2.5486232617068715e-04 7.3499999999999998e-04 0.0000000000000000e+00  -2.5953716066050352e-04 7.3499999999999998e-04 0.0000000000000000e+00  -2.6416811443762817e-04 7.3499999999999998e-04 0.0000000000000000e+00  -2.6876177728787806e-04 7.3499999999999998e-04 0.0000000000000000e+00  -2.7331815834731263e-04 7.3499999999999998e-04 0.0000000000000000e+00  -2.7780899601643924e-04 7.3499999999999998e-04 0.0000000000000000e+00  -2.8226947434897745e-04 7.3499999999999998e-04 0.0000000000000000e+00  -2.8661882551534861e-04 7.2183625852735784e-04 0.0000000000000000e+00  -2.8638077449692431e-04 7.0867032372908163e-04 0.0000000000000000e+00  -2.8604524744136055e-04 6.9550232353466138e-04 0.0000000000000000e+00  -2.8552553013684329e-04 6.8233215867380599e-04 0.0000000000000000e+00  -2.8487503857036991e-04 6.6917850462955676e-04 0.0000000000000000e+00  -2.8404709813782507e-04 6.5599388027928881e-04 0.0000000000000000e+00  -2.8308938156155198e-04 6.4283375433526362e-04 0.0000000000000000e+00  -2.8198539785522360e-04 6.2965047087959252e-04 0.0000000000000000e+00  -2.8071321210770963e-04 6.1646803877615504e-04 0.0000000000000000e+00  -2.7928360986139621e-04 6.0330229278906795e-04 0.0000000000000000e+00  -2.7769754723495818e-04 5.9010506907338151e-04 0.0000000000000000e+00  -2.7594775751211631e-04 5.7691277269053824e-04 0.0000000000000000e+00  -2.7403797905132827e-04 5.6369971395144600e-04 0.0000000000000000e+00  -2.7194940026069498e-04 5.5051056597948478e-04 0.0000000000000000e+00  -2.6969921376300532e-04 5.3727339299756711e-04 0.0000000000000000e+00  -2.6726410252540399e-04 5.2401644704361185e-04 0.0000000000000000e+00  -2.6464590170592801e-04 5.1077533765344382e-04 0.0000000000000000e+00  -2.6184336351961094e-04 4.9748736722459363e-04 0.0000000000000000e+00  -2.5884307242431652e-04 4.8421043599139609e-04 0.0000000000000000e+00  -2.5564684890996825e-04 4.7089770752944450e-04 0.0000000000000000e+00  -2.5225493586429382e-04 4.5752313127296536e-04 0.0000000000000000e+00  -2.4864128987753579e-04 4.4417249970724921e-04 0.0000000000000000e+00  -2.4481746644794075e-04 4.3074261073852048e-04 0.0000000000000000e+00  -2.4075461344074975e-04 4.1730210419111362e-04 0.0000000000000000e+00  -2.3648013210977937e-04 4.0378745122536004e-04 0.0000000000000000e+00  -2.3194150941726989e-04 3.9026750106382294e-04 0.0000000000000000e+00  -2.2717853580882325e-04 3.7662668296683784e-04 0.0000000000000000e+00  