<?xml version="1.0"?>
<VTKFile type="UnstructuredGrid"  version="0.1"  >
<UnstructuredGrid>
<Piece  NumberOfPoints="16512" NumberOfCells="32424">
<Points>
<DataArray  type="Float64"  NumberOfComponents="3"  format="ascii">-25 4.9 0  25 4.9 0  25 -4.9 0  -25 -4.9 0  -10 0 0  10 0 0  -24.80000000000034 4.9 0  -24.60000000000068 4.9 0  -24.40000000000101 4.9 0  -24.20000000000135 4.9 0  -24.00000000000169 4.9 0  -23.80000000000203 4.9 0  -23.60000000000237 4.9 0  -23.40000000000271 4.9 0  -23.20000000000304 4.9 0  -23.00000000000338 4.9 0  -22.80000000000372 4.9 0  -22.60000000000406 4.9 0  -22.40000000000439 4.9 0  -22.20000000000473 4.9 0  -22.00000000000507 4.9 0  -21.80000000000541 4.9 0  -21.60000000000575 4.9 0  -21.40000000000608 4.9 0  -21.20000000000642 4.9 0  -21.00000000000676 4.9 0  -20.8000000000071 4.9 0  -20.60000000000744 4.9 0  -20.40000000000777 4.9 0  -20.20000000000811 4.9 0  -20.00000000000845 4.9 0  -19.80000000000879 4.9 0  -19.60000000000912 4.9 0  -19.40000000000946 4.9 0  -19.2000000000098 4.9 0  -19.00000000001039 4.9 0  -18.80000000001108 4.9 0  -18.60000000001231 4.9 0  -18.40000000001371 4.9 0  -18.2000000000154 4.9 0  -18.00000000001716 4.9 0  -17.80000000001892 4.9 0  -17.60000000002067 4.9 0  -17.40000000002243 4.9 0  -17.20000000002419 4.9 0  -17.00000000002595 4.9 0  -16.80000000002771 4.9 0  -16.60000000002947 4.9 0  -16.40000000003123 4.9 0  -16.20000000003299 4.9 0  -16.00000000003472 4.9 0  -15.80000000003612 4.9 0  -15.60000000003748 4.9 0  -15.40000000003853 4.9 0  -15.20000000003958 4.9 0  -15.00000000004063 4.9 0  -14.80000000004168 4.9 0  -14.60000000004273 4.9 0  -14.40000000004377 4.9 0  -14.20000000004482 4.9 0  -14.00000000004587 4.9 0  -13.80000000004692 4.9 0  -13.60000000004797 4.9 0  -13.40000000004902 4.9 0  -13.20000000005007 4.9 0  -13.00000000005111 4.9 0  -12.80000000005216 4.9 0  -12.60000000005321 4.9 0  -12.40000000005426 4.9 0  -12.20000000005531 4.9 0  -12.00000000005636 4.9 0  -11.80000000005741 4.9 0  -11.60000000005846 4.9 0  -11.4000000000595 4.9 0  -11.20000000006055 4.9 0  -11.0000000000616 4.9 0  -10.80000000006265 4.9 0  -10.6000000000637 4.9 0  -10.40000000006475 4.9 0  -10.2000000000658 4.9 0  -10.00000000006684 4.9 0  -9.800000000067891 4.9 0  -9.60000000006894 4.9 0  -9.400000000069989 4.9 0  -9.200000000070727 4.9 0  -9.00000000007142 4.9 0  -8.800000000071787 4.9 0  -8.600000000072125 4.9 0  -8.400000000072467 4.9 0  -8.200000000072805 4.9 0  -8.000000000073143 4.9 0  -7.800000000073481 4.9 0  -7.60000000007382 4.9 0  -7.400000000074154 4.9 0  -7.200000000074493 4.9 0  -7.000000000074831 4.9 0  -6.800000000075173 4.9 0  -6.600000000075511 4.9 0  -6.400000000075849 4.9 0  -6.200000000076187 4.9 0  -6.000000000076525 4.9 0  -5.800000000076867 4.9 0  -5.600000000077205 4.9 0  -5.400000000077544 4.9 0  -5.200000000077882 4.9 0  -5.00000000007822 4.9 0  -4.800000000078558 4.9 0  -4.600000000078897 4.9 0  -4.400000000079235 4.9 0  -4.200000000079573 4.9 0  -4.000000000079908 4.9 0  -3.800000000080246 4.9 0  -3.600000000080588 4.9 0  -3.400000000080926 4.9 0  -3.200000000081264 4.9 0  -3.000000000081606 4.9 0  -2.800000000081944 4.9 0  -2.600000000082282 4.9 0  -2.40000000008262 4.9 0  -2.200000000082959 4.9 0  -2.000000000083297 4.9 0  -1.800000000083635 4.9 0  -1.600000000083973 4.9 0  -1.400000000084312 4.9 0  -1.20000000008465 4.9 0  -1.000000000084988 4.9 0  -0.8000000000853262 4.9 0  -0.6000000000856645 4.9 0  -0.4000000000860027 4.9 0  -0.2000000000863409 4.9 0  -8.667910833537462e-11 4.9 0  0.1999999999129827 4.9 0  0.3999999999126409 4.9 0  0.5999999999123027 4.9 0  0.7999999999119716 4.9 0  0.9999999999116262 4.9 0  1.199999999911295 4.9 0  1.39999999991095 4.9 0  1.599999999910619 4.9 0  1.799999999910273 4.9 0  1.999999999909939 4.9 0  2.199999999909597 4.9 0  2.399999999909262 4.9 0  2.599999999908921 4.9 0  2.799999999908582 4.9 0  2.999999999908244 4.9 0  3.199999999907906 4.9 0  3.399999999907564 4.9 0  3.599999999907226 4.9 0  3.799999999906888 4.9 0  3.999999999906549 4.9 0  4.199999999906218 4.9 0  4.399999999905873 4.9 0  4.599999999905542 4.9 0  4.799999999905197 4.9 0  4.999999999904865 4.9 0  5.19999999990452 4.9 0  5.399999999904182 4.9 0  5.599999999903844 4.9 0  5.799999999903505 4.9 0  5.999999999903167 4.9 0  6.199999999902829 4.9 0  6.399999999902491 4.9 0  6.599999999902153 4.9 0  6.799999999902379 4.9 0  6.999999999902752 4.9 0  7.199999999903724 4.9 0  7.399999999904807 4.9 0  7.59999999990589 4.9 0  7.799999999906966 4.9 0  7.999999999908056 4.9 0  8.199999999909132 4.9 0  8.399999999910214 4.9 0  8.59999999991129 4.9 0  8.79999999991238 4.9 0  8.999999999913456 4.9 0  9.199999999914539 4.9 0  9.399999999915622 4.9 0  9.599999999916704 4.9 0  9.79999999991778 4.9 0  9.99999999991887 4.9 0  10.19999999991995 4.9 0  10.39999999992103 4.9 0  10.59999999992212 4.9 0  10.79999999992319 4.9 0  10.99999999992428 4.9 0  11.19999999992536 4.9 0  11.39999999992644 4.9 0  11.59999999992752 4.9 0  11.7999999999286 4.9 0  11.99999999992968 4.9 0  12.19999999993077 4.9 0  12.39999999993184 4.9 0  12.59999999993293 4.9 0  12.79999999993401 4.9 0  12.99999999993509 4.9 0  13.19999999993617 4.9 0  13.39999999993726 4.9 0  13.59999999993834 4.9 0  13.79999999993942 4.9 0  13.99999999994051 4.9 0  14.19999999994158 4.9 0  14.39999999994266 4.9 0  14.59999999994375 4.9 0  14.79999999994483 4.9 0  14.99999999994591 4.9 0  15.199999999947 4.9 0  15.39999999994807 4.9 0  15.59999999994915 4.9 0  15.79999999995024 4.9 0  15.99999999995132 4.9 0  16.1999999999524 4.9 0  16.39999999995349 4.9 0  16.59999999995456 4.9 0  16.79999999995565 4.9 0  16.99999999995674 4.9 0  17.19999999995781 4.9 0  17.39999999995889 4.9 0  17.59999999995997 4.9 0  17.79999999996106 4.9 0  17.99999999996214 4.9 0  18.19999999996322 4.9 0  18.3999999999643 4.9 0  18.59999999996538 4.9 0  18.79999999996646 4.9 0  18.99999999996755 4.9 0  19.19999999996863 4.9 0  19.39999999996971 4.9 0  19.59999999997079 4.9 0  19.79999999997187 4.9 0  19.99999999997296 4.9 0  20.19999999997404 4.9 0  20.39999999997512 4.9 0  20.5999999999762 4.9 0  20.79999999997728 4.9 0  20.99999999997836 4.9 0  21.19999999997945 4.9 0  21.39999999998052 4.9 0  21.59999999998161 4.9 0  21.79999999998269 4.9 0  21.99999999998377 4.9 0  22.19999999998485 4.9 0  22.39999999998594 4.9 0  22.59999999998701 4.9 0  22.7999999999881 4.9 0  22.99999999998919 4.9 0  23.19999999999026 4.9 0  23.39999999999135 4.9 0  23.59999999999243 4.9 0  23.79999999999351 4.9 0  23.99999999999459 4.9 0  24.19999999999568 4.9 0  24.39999999999675 4.9 0  24.59999999999783 4.9 0  24.79999999999892 4.9 0  25 4.700000000000415 0  25 4.500000000000868 0  25 4.300000000001562 0  25 4.100000000001831 0  25 3.900000000002072 0  25 3.700000000002459 0  25 3.500000000003038 0  25 3.300000000003653 0  25 3.100000000004294 0  25 2.900000000004838 0  25 2.700000000005293 0  25 2.500000000005957 0  25 2.300000000006508 0  25 2.100000000007153 0  25 1.900000000007722 0  25 1.700000000008417 0  25 1.500000000008938 0  25 1.30000000000963 0  25 1.100000000010154 0  25 0.9000000000108268 0  25 0.7000000000114559 0  25 0.5000000000119762 0  25 0.3000000000126564 0  25 0.1000000000131926 0  25 -0.09999999998679243 0  25 -0.2999999999874587 0  25 -0.4999999999878586 0  25 -0.6999999999884441 0  25 -0.899999999988804 0  25 -1.099999999989427 0  25 -1.299999999989749 0  25 -1.499999999990411 0  25 -1.69999999999073 0  25 -1.899999999991396 0  25 -2.099999999991715 0  25 -2.299999999992381 0  25 -2.499999999993047 0  25 -2.699999999993714 0  25 -2.899999999994227 0  25 -3.099999999994698 0  25 -3.299999999994673 0  25 -3.499999999995339 0  25 -3.699999999996004 0  25 -3.89999999999667 0  25 -4.099999999997335 0  25 -4.299999999998002 0  25 -4.499999999998668 0  25 -4.699999999999335 0  24.80000000000034 -4.9 0  24.60000000000068 -4.9 0  24.40000000000101 -4.9 0  24.20000000000135 -4.9 0  24.00000000000169 -4.9 0  23.80000000000203 -4.9 0  23.60000000000237 -4.9 0  23.40000000000271 -4.9 0  23.20000000000304 -4.9 0  23.00000000000338 -4.9 0  22.80000000000372 -4.9 0  22.60000000000406 -4.9 0  22.40000000000439 -4.9 0  22.20000000000473 -4.9 0  22.00000000000507 -4.9 0  21.80000000000541 -4.9 0  21.60000000000575 -4.9 0  21.40000000000608 -4.9 0  21.20000000000642 -4.9 0  21.00000000000676 -4.9 0  20.8000000000071 -4.9 0  20.60000000000744 -4.9 0  20.40000000000777 -4.9 0  20.20000000000811 -4.9 0  20.00000000000845 -4.9 0  19.80000000000879 -4.9 0  19.60000000000912 -4.9 0  19.40000000000946 -4.9 0  19.2000000000098 -4.9 0  19.00000000001039 -4.9 0  18.80000000001108 -4.9 0  18.60000000001231 -4.9 0  18.40000000001371 -4.9 0  18.2000000000154 -4.9 0  18.00000000001716 -4.9 0  17.80000000001892 -4.9 0  17.60000000002067 -4.9 0  17.40000000002243 -4.9 0  17.20000000002419 -4.9 0  17.00000000002595 -4.9 0  16.80000000002771 -4.9 0  16.60000000002947 -4.9 0  16.40000000003123 -4.9 0  16.20000000003299 -4.9 0  16.00000000003472 -4.9 0  15.80000000003612 -4.9 0  15.60000000003748 -4.9 0  15.40000000003853 -4.9 0  15.20000000003958 -4.9 0  15.00000000004063 -4.9 0  14.80000000004168 -4.9 0  14.60000000004273 -4.9 0  14.40000000004377 -4.9 0  14.20000000004482 -4.9 0  14.00000000004587 -4.9 0  13.80000000004692 -4.9 0  13.60000000004797 -4.9 0  13.40000000004902 -4.9 0  13.20000000005007 -4.9 0  13.00000000005111 -4.9 0  12.80000000005216 -4.9 0  12.60000000005321 -4.9 0  12.40000000005426 -4.9 0  12.20000000005531 -4.9 0  12.00000000005636 -4.9 0  11.80000000005741 -4.9 0  11.60000000005846 -4.9 0  11.4000000000595 -4.9 0  11.20000000006055 -4.9 0  11.0000000000616 -4.9 0  10.80000000006265 -4.9 0  10.6000000000637 -4.9 0  10.40000000006475 -4.9 0  10.2000000000658 -4.9 0  10.00000000006684 -4.9 0  9.800000000067891 -4.9 0  9.60000000006894 -4.9 0  9.400000000069989 -4.9 0  9.200000000070727 -4.9 0  9.00000000007142 -4.9 0  8.800000000071787 -4.9 0  8.600000000072125 -4.9 0  8.400000000072467 -4.9 0  8.200000000072805 -4.9 0  8.000000000073143 -4.9 
[...]
<PointData  Vectors="f_7"> 
<DataArray  type="Float64"  Name="f_7"  NumberOfComponents="3" format="ascii">3.4740137560841620e-05 8.0000000000000007e-05 0.0000000000000000e+00  -3.4771427520349136e-05 8.0000000000000007e-05 0.0000000000000000e+00  0.0000000000000000e+00 0.0000000000000000e+00 0.0000000000000000e+00  0.0000000000000000e+00 0.0000000000000000e+00 0.0000000000000000e+00  6.3305858867050853e-06 4.0009304261554105e-05 0.0000000000000000e+00  -6.2014021214523520e-06 3.9365977730292189e-05 0.0000000000000000e+00  3.4272811003455547e-05 8.0000000000000007e-05 0.0000000000000000e+00  3.3801964670779900e-05 8.0000000000000007e-05 0.0000000000000000e+00  3.3328154488684666e-05 8.0000000000000007e-05 0.0000000000000000e+00  3.2844153361849952e-05 8.0000000000000007e-05 0.0000000000000000e+00  3.2357973247379290e-05 8.0000000000000007e-05 0.0000000000000000e+00  3.1864461283576290e-05 8.0000000000000007e-05 0.0000000000000000e+00  3.1368058934570259e-05 8.0000000000000007e-05 0.0000000000000000e+00  3.0865816946367248e-05 8.0000000000000007e-05 0.0000000000000000e+00  3.0362494711770022e-05 8.0000000000000007e-05 0.0000000000000000e+00  2.9854356119363544e-05 8.0000000000000007e-05 0.0000000000000000e+00  2.9343730350255385e-05 8.0000000000000007e-05 0.0000000000000000e+00  2.8833225330317308e-05 8.0000000000000007e-05 0.0000000000000000e+00  2.8317136675557157e-05 8.0000000000000007e-05 0.0000000000000000e+00  2.7801874914849015e-05 8.0000000000000007e-05 0.0000000000000000e+00  2.7286406368596694e-05 8.0000000000000007e-05 0.0000000000000000e+00  2.6771185114117880e-05 8.0000000000000007e-05 0.0000000000000000e+00  2.6252519256215773e-05 8.0000000000000007e-05 0.0000000000000000e+00  2.5736115694986566e-05 8.0000000000000007e-05 0.0000000000000000e+00  2.5221579030352858e-05 8.0000000000000007e-05 0.0000000000000000e+00  2.4705475473709645e-05 8.0000000000000007e-05 0.0000000000000000e+00  2.4191728111435337e-05 8.0000000000000007e-05 0.0000000000000000e+00  2.3679844021059584e-05 8.0000000000000007e-05 0.0000000000000000e+00  2.3170719199551472e-05 8.0000000000000007e-05 0.0000000000000000e+00  2.2664631126617746e-05 8.0000000000000007e-05 0.0000000000000000e+00  2.2157591202481452e-05 8.0000000000000007e-05 0.0000000000000000e+00  2.1654437020823643e-05 8.0000000000000007e-05 0.0000000000000000e+00  2.1154839872279428e-05 8.0000000000000007e-05 0.0000000000000000e+00  2.0657613070385320e-05 8.0000000000000007e-05 0.0000000000000000e+00  2.0163521437055342e-05 8.0000000000000007e-05 0.0000000000000000e+00  1.9672903630223217e-05 8.0000000000000007e-05 0.0000000000000000e+00  1.9184925355485798e-05 8.0000000000000007e-05 0.0000000000000000e+00  1.8700407438537126e-05 8.0000000000000007e-05 0.0000000000000000e+00  1.8219327522228322e-05 8.0000000000000007e-05 0.0000000000000000e+00  1.7742252235422664e-05 8.0000000000000007e-05 0.0000000000000000e+00  1.7266373056591685e-05 8.0000000000000007e-05 0.0000000000000000e+00  1.6794830791130215e-05 8.0000000000000007e-05 0.0000000000000000e+00  1.6326075865338469e-05 8.0000000000000007e-05 0.0000000000000000e+00  1.5860949416517728e-05 8.0000000000000007e-05 0.0000000000000000e+00  1.5397666764250503e-05 8.0000000000000007e-05 0.0000000000000000e+00  1.4937568798156183e-05 8.0000000000000007e-05 0.0000000000000000e+00  1.4480396112112331e-05 8.0000000000000007e-05 0.0000000000000000e+00  1.4025577358054498e-05 8.0000000000000007e-05 0.0000000000000000e+00  1.3572908561703287e-05 8.0000000000000007e-05 0.0000000000000000e+00  1.3122230918789872e-05 8.0000000000000007e-05 0.0000000000000000e+00  1.2673239933507951e-05 8.0000000000000007e-05 0.0000000000000000e+00  1.2225969835667449e-05 8.0000000000000007e-05 0.0000000000000000e+00  1.1780164695827286e-05 8.0000000000000007e-05 0.0000000000000000e+00  1.1335530860317406e-05 8.0000000000000007e-05 0.0000000000000000e+00  1.0891981409506857e-05 8.0000000000000007e-05 0.0000000000000000e+00  1.0449362924170437e-05 8.0000000000000007e-05 0.0000000000000000e+00  1.0007305483837600e-05 8.0000000000000007e-05 0.0000000000000000e+00  9.5655214629535053e-06 8.0000000000000007e-05 0.0000000000000000e+00  9.1243378400516505e-06 8.0000000000000007e-05 0.0000000000000000e+00  8.6833231693074086e-06 8.0000000000000007e-05 0.0000000000000000e+00  8.2428873637580465e-06 8.0000000000000007e-05 0.0000000000000000e+00  7.8028349899884026e-06 8.0000000000000007e-05 0.0000000000000000e+00  7.3632565681383716e-06 8.0000000000000007e-05 0.0000000000000000e+00  6.9244117905553927e-06 8.0000000000000007e-05 0.0000000000000000e+00  6.4870132455514764e-06 8.0000000000000007e-05 0.0000000000000000e+00  6.0510721465578694e-06 8.0000000000000007e-05 0.0000000000000000e+00  5.6188259457116659e-06 8.0000000000000007e-05 0.0000000000000000e+00  5.1895754554174304e-06 8.0000000000000007e-05 0.0000000000000000e+00  4.7646846846815339e-06 8.0000000000000007e-05 0.0000000000000000e+00  4.3448145201545247e-06 8.0000000000000007e-05 0.0000000000000000e+00  3.9318619433727556e-06 8.0000000000000007e-05 0.0000000000000000e+00  3.5285198343323693e-06 8.0000000000000007e-05 0.0000000000000000e+00  3.1358795439132306e-06 8.0000000000000007e-05 0.0000000000000000e+00  2.7581484104204286e-06 8.0000000000000007e-05 0.0000000000000000e+00  2.3924267738206286e-06 8.0000000000000007e-05 0.0000000000000000e+00  2.0395670142311107e-06 8.0000000000000007e-05 0.0000000000000000e+00  1.7067165626170826e-06 8.0000000000000007e-05 0.0000000000000000e+00  1.3971315554961226e-06 8.0000000000000007e-05 0.0000000000000000e+00  1.1084584025397583e-06 8.0000000000000007e-05 0.0000000000000000e+00  8.3854850565268736e-07 8.0000000000000007e-05 0.0000000000000000e+00  5.9731116123235471e-07 8.0000000000000007e-05 0.0000000000000000e+00  3.7709642143378484e-07 8.0000000000000007e-05 0.0000000000000000e+00  1.8272038032447168e-07 8.0000000000000007e-05 0.0000000000000000e+00  1.5562501575954874e-08 8.0000000000000007e-05 0.0000000000000000e+00  -1.2826767069527306e-07 8.0000000000000007e-05 0.0000000000000000e+00  -2.5004375202313214e-07 8.0000000000000007e-05 0.0000000000000000e+00  -3.4872051266890818e-07 8.0000000000000007e-05 0.0000000000000000e+00  -4.2543982124379092e-07 8.0000000000000007e-05 0.0000000000000000e+00  -4.8160454812384877e-07 8.0000000000000007e-05 0.0000000000000000e+00  -5.1954913347693418e-07 8.0000000000000007e-05 0.0000000000000000e+00  -5.4329885032845239e-07 8.0000000000000007e-05 0.0000000000000000e+00  -5.5384458732819377e-07 8.0000000000000007e-05 0.0000000000000000e+00  -5.5047974654034801e-07 8.0000000000000007e-05 0.0000000000000000e+00  -5.3592003327158784e-07 8.0000000000000007e-05 0.0000000000000000e+00  -5.1472175477363040e-07 8.0000000000000007e-05 0.0000000000000000e+00  -4.8682992116988406e-07 8.0000000000000007e-05 0.0000000000000000e+00  -4.5387474652977357e-07 8.0000000000000007e-05 0.0000000000000000e+00  -4.1546188664480913e-07 8.0000000000000007e-05 0.0000000000000000e+00  -3.7524327572127946e-07 8.0000000000000007e-05 0.0000000000000000e+00  -3.3358139071889239e-07 8.0000000000000007e-05 0.0000000000000000e+00  -2.9181433192167101e-07 8.0000000000000007e-05 0.0000000000000000e+00  -2.4955445141318829e-07 8.0000000000000007e-05 0.0000000000000000e+00  -2.0879556636828839e-07 8.0000000000000007e-05 0.0000000000000000e+00  -1.6985148631128111e-07 8.0000000000000007e-05 0.0000000000000000e+00  -1.3302305375702690e-07 8.0000000000000007e-05 0.0000000000000000e+00  -9.8727614385506888e-08 8.0000000000000007e-05 0.0000000000000000e+00  -6.7398777604020920e-08 8.0000000000000007e-05 0.0000000000000000e+00  -3.9394384285294592e-08 8.0000000000000007e-05 0.0000000000000000e+00  -1.4009009899720783e-08 8.0000000000000007e-05 0.0000000000000000e+00  7.7927267129958474e-09 8.0000000000000007e-05 0.0000000000000000e+00  2.6131827799647029e-08 8.0000000000000007e-05 0.0000000000000000e+00  4.0849610233238483e-08 8.0000000000000007e-05 0.0000000000000000e+00  5.2259942392640807e-08 8.0000000000000007e-05 0.0000000000000000e+00  6.0480771939652242e-08 8.0000000000000007e-05 0.0000000000000000e+00  6.5731772355246507e-08 8.0000000000000007e-05 0.0000000000000000e+00  6.7838535677273155e-08 8.0000000000000007e-05 0.0000000000000000e+00  6.7185618402829144e-08 8.0000000000000007e-05 0.0000000000000000e+00  6.3987455933763349e-08 8.0000000000000007e-05 0.0000000000000000e+00  5.8671294197121684e-08 8.0000000000000007e-05 0.0000000000000000e+00  5.1132022904846848e-08 8.0000000000000007e-05 0.0000000000000000e+00  4.1935071510749886e-08 8.0000000000000007e-05 0.0000000000000000e+00  3.1011584453390379e-08 8.0000000000000007e-05 0.0000000000000000e+00  1.8877845717482777e-08 8.0000000000000007e-05 0.0000000000000000e+00  5.5831766384751112e-09 8.0000000000000007e-05 0.0000000000000000e+00  -8.5655720041673637e-09 8.0000000000000007e-05 0.0000000000000000e+00  -2.3320558692728398e-08 8.0000000000000007e-05 0.0000000000000000e+00  -3.8503116627879949e-08 8.0000000000000007e-05 0.0000000000000000e+00  -5.3877757157550437e-08 8.0000000000000007e-05 0.0000000000000000e+00  -6.9129301258206721e-08 8.0000000000000007e-05 0.0000000000000000e+00  -8.4187162841233938e-08 8.0000000000000007e-05 0.0000000000000000e+00  -9.8845661853820975e-08 8.0000000000000007e-05 0.0000000000000000e+00  -1.1294799536649708e-07 8.0000000000000007e-05 0.0000000000000000e+00  -1.2608634340792374e-07 8.0000000000000007e-05 0.0000000000000000e+00  -1.3840389813300403e-07 8.0000000000000007e-05 0.0000000000000000e+00  -1.4967248928367463e-07 8.0000000000000007e-05 0.0000000000000000e+00  -1.5953150916256589e-07 8.0000000000000007e-05 0.0000000000000000e+00  -1.6801587435245579e-07 8.0000000000000007e-05 0.0000000000000000e+00  -1.7493146393173352e-07 8.0000000000000007e-05 0.0000000000000000e+00  -1.8006641697474126e-07 8.0000000000000007e-05 0.0000000000000000e+00  -1.8355223617976370e-07 8.0000000000000007e-05 0.0000000000000000e+00  -1.8523364247579659e-07 8.0000000000000007e-05 0.0000000000000000e+00  -1.8503287970759406e-07 8.0000000000000007e-05 0.0000000000000000e+00  -1.8276462589474017e-07 8.0000000000000007e-05 0.0000000000000000e+00  -1.7845447765074532e-07 8.0000000000000007e-05 0.0000000000000000e+00  -1.7199520326949578e-07 8.0000000000000007e-05 0.0000000000000000e+00  -1.6327574235204884e-07 8.0000000000000007e-05 0.0000000000000000e+00  -1.5232530880642673e-07 8.0000000000000007e-05 0.0000000000000000e+00  -1.3884166422667379e-07 8.0000000000000007e-05 0.0000000000000000e+00  -1.2292120778898583e-07 8.0000000000000007e-05 0.0000000000000000e+00  -1.0468870797987171e-07 8.0000000000000007e-05 0.0000000000000000e+00  -8.3679734174291276e-08 8.0000000000000007e-05 0.0000000000000000e+00  -6.0078374976453411e-08 8.0000000000000007e-05 0.0000000000000000e+00  -3.3653971857159622e-08 8.0000000000000007e-05 0.0000000000000000e+00  -4.5216866140096827e-09 8.0000000000000007e-05 0.0000000000000000e+00  2.7046514033330648e-08 8.0000000000000007e-05 0.0000000000000000e+00  6.2222781642777411e-08 8.0000000000000007e-05 0.0000000000000000e+00  9.8590145833271198e-08 8.0000000000000007e-05 0.0000000000000000e+00  1.3749290744566348e-07 8.0000000000000007e-05 0.0000000000000000e+00  1.7842482276144948e-07 8.0000000000000007e-05 0.0000000000000000e+00  2.2095580881787323e-07 8.0000000000000007e-05 0.0000000000000000e+00  2.6371876882677331e-07 8.0000000000000007e-05 0.0000000000000000e+00  3.0687557481044027e-07 8.0000000000000007e-05 0.0000000000000000e+00  3.4920315286001571e-07 8.0000000000000007e-05 0.0000000000000000e+00  3.9004124849777293e-07 8.0000000000000007e-05 0.0000000000000000e+00  4.2865245600690420e-07 8.0000000000000007e-05 0.0000000000000000e+00  4.6168471605314200e-07 8.0000000000000007e-05 0.0000000000000000e+00  4.8927146390775266e-07 8.0000000000000007e-05 0.0000000000000000e+00  5.0846985049361108e-07 8.0000000000000007e-05 0.0000000000000000e+00  5.2169874702763882e-07 8.0000000000000007e-05 0.0000000000000000e+00  5.2292499877436032e-07 8.0000000000000007e-05 0.0000000000000000e+00  5.1083241139480416e-07 8.0000000000000007e-05 0.0000000000000000e+00  4.8622475860602139e-07 8.0000000000000007e-05 0.0000000000000000e+00  4.4294710114036612e-07 8.0000000000000007e-05 0.0000000000000000e+00  3.8682711943110389e-07 8.0000000000000007e-05 0.0000000000000000e+00  3.1025066553080118e-07 8.0000000000000007e-05 0.0000000000000000e+00  2.0893131732531626e-07 8.0000000000000007e-05 0.0000000000000000e+00  8.3852758045076935e-08 8.0000000000000007e-05 0.0000000000000000e+00  -6.2722125377432919e-08 8.0000000000000007e-05 0.0000000000000000e+00  -2.3516577748024853e-07 8.0000000000000007e-05 0.0000000000000000e+00  -4.3347388516558540e-07 8.0000000000000007e-05 0.0000000000000000e+00  -6.5554851585193211e-07 8.0000000000000007e-05 0.0000000000000000e+00  -9.0354731079873513e-07 8.0000000000000007e-05 0.0000000000000000e+00  -1.1671077030528770e-06 8.0000000000000007e-05 0.0000000000000000e+00  -1.4603787978645194e-06 8.0000000000000007e-05 0.0000000000000000e+00  -1.7739446595913175e-06 8.0000000000000007e-05 0.0000000000000000e+00  -2.1066528697633831e-06 8.0000000000000007e-05 0.0000000000000000e+00  -2.4578805718463999e-06 8.0000000000000007e-05 0.0000000000000000e+00  -2.8233132807581432e-06 8.0000000000000007e-05 0.0000000000000000e+00  -3.2050144622942630e-06 8.0000000000000007e-05 0.0000000000000000e+00  -3.5967568097634439e-06 8.0000000000000007e-05 0.0000000000000000e+00  -4.0008636833939573e-06 8.0000000000000007e-05 0.0000000000000000e+00  -4.4124896012202129e-06 8.0000000000000007e-05 0.0000000000000000e+00  -4.8308100345054163e-06 8.0000000000000007e-05 0.0000000000000000e+00  -5.2545656760923106e-06 8.0000000000000007e-05 0.0000000000000000e+00  -5.6837006256613535e-06 8.0000000000000007e-05 0.0000000000000000e+00  -6.1153789486268961e-06 8.0000000000000007e-05 0.0000000000000000e+00  -6.5499896076365978e-06 8.0000000000000007e-05 0.0000000000000000e+00  -6.9861526018502487e-06 8.0000000000000007e-05 0.0000000000000000e+00  -7.4236120393497006e-06 8.0000000000000007e-05 0.0000000000000000e+00  -7.8619953211082200e-06 8.0000000000000007e-05 0.0000000000000000e+00  -8.3009330817203402e-06 8.0000000000000007e-05 0.0000000000000000e+00  -8.7403155094083938e-06 8.0000000000000007e-05 0.0000000000000000e+00  -9.1799851047832822e-06 8.0000000000000007e-05 0.0000000000000000e+00  -9.6199928129298600e-06 8.0000000000000007e-05 0.0000000000000000e+00  -1.0060529692113763e-05 8.0000000000000007e-05 0.0000000000000000e+00  -1.0501777429871871e-05 8.0000000000000007e-05 0.0000000000000000e+00  -1.0943273087665088e-05 8.0000000000000007e-05 0.0000000000000000e+00  -1.1385632895585458e-05 8.0000000000000007e-05 0.0000000000000000e+00  -1.1829123709127467e-05 8.0000000000000007e-05 0.0000000000000000e+00  -1.2273815380182729e-05 8.0000000000000007e-05 0.0000000000000000e+00  -1.2720126314634129e-05 8.0000000000000007e-05 0.0000000000000000e+00  -1.3168107978652830e-05 8.0000000000000007e-05 0.0000000000000000e+00  -1.3617797004099108e-05 8.0000000000000007e-05 0.0000000000000000e+00  -1.4069677086733965e-05 8.0000000000000007e-05 0.0000000000000000e+00  -1.4523985314462980e-05 8.0000000000000007e-05 0.0000000000000000e+00  -1.4981018638386522e-05 8.0000000000000007e-05 0.0000000000000000e+00  -1.5440620930030664e-05 8.0000000000000007e-05 0.0000000000000000e+00  -1.5901971126727532e-05 8.0000000000000007e-05 0.0000000000000000e+00  -1.6366885150930869e-05 8.0000000000000007e-05 0.0000000000000000e+00  -1.6834968652780618e-05 8.0000000000000007e-05 0.0000000000000000e+00  -1.7306766409339485e-05 8.0000000000000007e-05 0.0000000000000000e+00  -1.7780016465604707e-05 8.0000000000000007e-05 0.0000000000000000e+00  -1.8257522627208242e-05 8.0000000000000007e-05 0.0000000000000000e+00  -1.8738978727558311e-05 8.0000000000000007e-05 0.0000000000000000e+00  -1.9222383131866046e-05 8.0000000000000007e-05 0.0000000000000000e+00  -1.9709642844999716e-05 8.0000000000000007e-05 0.0000000000000000e+00  -2.0200263560275983e-05 8.0000000000000007e-05 0.0000000000000000e+00  -2.0694366086513858e-05 8.0000000000000007e-05 0.0000000000000000e+00  -2.1191198096147177e-05 8.0000000000000007e-05 0.0000000000000000e+00  -2.1690447258942631e-05 8.0000000000000007e-05 0.0000000000000000e+00  -2.2192629639783356e-05 8.0000000000000007e-05 0.0000000000000000e+00  -2.2697959142448742e-05 8.0000000000000007e-05 0.0000000000000000e+00  -2.3205396781154108e-05 8.0000000000000007e-05 0.0000000000000000e+00  -2.3714848070704208e-05 8.0000000000000007e-05 0.0000000000000000e+00  -2.4226319161127639e-05 8.0000000000000007e-05 0.0000000000000000e+00  -2.4739830177283151e-05 8.0000000000000007e-05 0.0000000000000000e+00  -2.5254008840938685e-05 8.0000000000000007e-05 0.0000000000000000e+00  -2.5770023571174095e-05 8.0000000000000007e-05 0.0000000000000000e+00  -2.6285599472717001e-05 8.0000000000000007e-05 0.0000000000000000e+00  -2.6802457681535065e-05 8.0000000000000007e-05 0.0000000000000000e+00  -2.7319453429919463e-05 8.0000000000000007e-05 0.0000000000000000e+00  -2.7835144296940536e-05 8.0000000000000007e-05 0.0000000000000000e+00  -2.8350264670253163e-05 8.0000000000000007e-05 0.0000000000000000e+00  -2.8864347575587676e-05 8.0000000000000007e-05 0.0000000000000000e+00  -2.9376539083168836e-05 8.0000000000000007e-05 0.0000000000000000e+00  -2.9886050356489271e-05 8.0000000000000007e-05 0.0000000000000000e+00  -3.0394570509294474e-05 8.0000000000000007e-05 0.0000000000000000e+00  -3.0899134220291467e-05 8.0000000000000007e-05 0.0000000000000000e+00  -3.1400010250489420e-05 8.0000000000000007e-05 0.0000000000000000e+00  -3.1896851309571815e-05 8.0000000000000007e-05 0.0000000000000000e+00  -3.2388566139995854e-05 8.0000000000000007e-05 0.0000000000000000e+00  -3.2875901997286263e-05 8.0000000000000007e-05 0.0000000000000000e+00  -3.3358807416183109e-05 8.0000000000000007e-05 0.0000000000000000e+00  -3.3833311683122338e-05 8.0000000000000007e-05 0.0000000000000000e+00  -3.4303997507689167e-05 8.0000000000000007e-05 0.0000000000000000e+00  -3.4759848587945738e-05 7.8616633829874187e-05 0.0000000000000000e+00  -3.4727714902029944e-05 7.7232832799081576e-05 0.0000000000000000e+00  -3.4682375646787748e-05 7.5848538663600781e-05 0.0000000000000000e+00  -3.4612301526993925e-05 7.4463649246546860e-05 0.0000000000000000e+00  -3.4524672915954272e-05 7.3080485643086982e-05 0.0000000000000000e+00  -3.4413210721101827e-05 7.1692729025444184e-05 0.0000000000000000e+00  -3.4284417361299986e-05 7.0307595604601964e-05 0.0000000000000000e+00  -3.4136228899013926e-05 6.8918602803913902e-05 0.0000000000000000e+00  -3.3965779114042634e-05 6.7528896240966039e-05 0.0000000000000000e+00  -3.3774365027864745e-05 6.6140422195953464e-05 0.0000000000000000e+00  -3.3562753152095047e-05 6.4746782005244095e-05 0.0000000000000000e+00  -3.3329458304069790e-05 6.3352694991689103e-05 0.0000000000000000e+00  -3.3075768945148451e-05 6.1954702413686253e-05 0.0000000000000000e+00  -3.2798779559452723e-05 6.0558441427158219e-05 0.0000000000000000e+00  -3.2501228818276216e-05 5.9154750656957217e-05 0.0000000000000000e+00  -3.2180286329257938e-05 5.7747107021939157e-05 0.0000000000000000e+00  -3.1835935096582498e-05 5.6339891229705816e-05 0.0000000000000000e+00  -3.1468896787543996e-05 5.4925205243820122e-05 0.0000000000000000e+00  -3.1076817880940930e-05 5.3510228676918961e-05 0.0000000000000000e+00  -3.0660528933330370e-05 5.2088939471379062e-05 0.0000000000000000e+00  -3.0220667111232699e-05 5.0658306019998636e-05 0.0000000000000000e+00  -2.9753164658950701e-05 4.9228714129777858e-05 0.0000000000000000e+00  -2.9260815983160294e-05 4.7787596075842380e-05 0.0000000000000000e+00  -2.8738932265165827e-05 4.6343226153988731e-05 0.0000000000000000e+00  -2.8192495044469285e-05 4.4887876537919320e-05 0.0000000000000000e+00  -2.7614041688313117e-05 4.3429669522205411e-05 0.0000000000000000e+00  -2.7009941720088667e-05 4.1954887193843312e-05 0.00000000000000