<?xml version="1.0"?>
<VTKFile type="UnstructuredGrid"  version="0.1"  >
<UnstructuredGrid>
<Piece  NumberOfPoints="16512" NumberOfCells="32424">
<Points>
<DataArray  type="Float64"  NumberOfComponents="3"  format="ascii">-25 4.9 0  25 4.9 0  25 -4.9 0  -25 -4.9 0  -10 0 0  10 0 0  -24.80000000000034 4.9 0  -24.60000000000068 4.9 0  -24.40000000000101 4.9 0  -24.20000000000135 4.9 0  -24.00000000000169 4.9 0  -23.80000000000203 4.9 0  -23.60000000000237 4.9 0  -23.40000000000271 4.9 0  -23.20000000000304 4.9 0  -23.00000000000338 4.9 0  -22.80000000000372 4.9 0  -22.60000000000406 4.9 0  -22.40000000000439 4.9 0  -22.20000000000473 4.9 0  -22.00000000000507 4.9 0  -21.80000000000541 4.9 0  -21.60000000000575 4.9 0  -21.40000000000608 4.9 0  -21.20000000000642 4.9 0  -21.00000000000676 4.9 0  -20.8000000000071 4.9 0  -20.60000000000744 4.9 0  -20.40000000000777 4.9 0  -20.20000000000811 4.9 0  -20.00000000000845 4.9 0  -19.80000000000879 4.9 0  -19.60000000000912 4.9 0  -19.40000000000946 4.9 0  -19.2000000000098 4.9 0  -19.00000000001039 4.9 0  -18.80000000001108 4.9 0  -18.60000000001231 4.9 0  -18.40000000001371 4.9 0  -18.2000000000154 4.9 0  -18.00000000001716 4.9 0  -17.80000000001892 4.9 0  -17.60000000002067 4.9 0  -17.40000000002243 4.9 0  -17.20000000002419 4.9 0  -17.00000000002595 4.9 0  -16.80000000002771 4.9 0  -16.60000000002947 4.9 0  -16.40000000003123 4.9 0  -16.20000000003299 4.9 0  -16.00000000003472 4.9 0  -15.80000000003612 4.9 0  -15.60000000003748 4.9 0  -15.40000000003853 4.9 0  -15.20000000003958 4.9 0  -15.00000000004063 4.9 0  -14.80000000004168 4.9 0  -14.60000000004273 4.9 0  -14.40000000004377 4.9 0  -14.20000000004482 4.9 0  -14.00000000004587 4.9 0  -13.80000000004692 4.9 0  -13.60000000004797 4.9 0  -13.40000000004902 4.9 0  -13.20000000005007 4.9 0  -13.00000000005111 4.9 0  -12.80000000005216 4.9 0  -12.60000000005321 4.9 0  -12.40000000005426 4.9 0  -12.20000000005531 4.9 0  -12.00000000005636 4.9 0  -11.80000000005741 4.9 0  -11.60000000005846 4.9 0  -11.4000000000595 4.9 0  -11.20000000006055 4.9 0  -11.0000000000616 4.9 0  -10.80000000006265 4.9 0  -10.6000000000637 4.9 0  -10.40000000006475 4.9 0  -10.2000000000658 4.9 0  -10.00000000006684 4.9 0  -9.800000000067891 4.9 0  -9.60000000006894 4.9 0  -9.400000000069989 4.9 0  -9.200000000070727 4.9 0  -9.00000000007142 4.9 0  -8.800000000071787 4.9 0  -8.600000000072125 4.9 0  -8.400000000072467 4.9 0  -8.200000000072805 4.9 0  -8.000000000073143 4.9 0  -7.800000000073481 4.9 0  -7.60000000007382 4.9 0  -7.400000000074154 4.9 0  -7.200000000074493 4.9 0  -7.000000000074831 4.9 0  -6.800000000075173 4.9 0  -6.600000000075511 4.9 0  -6.400000000075849 4.9 0  -6.200000000076187 4.9 0  -6.000000000076525 4.9 0  -5.800000000076867 4.9 0  -5.600000000077205 4.9 0  -5.400000000077544 4.9 0  -5.200000000077882 4.9 0  -5.00000000007822 4.9 0  -4.800000000078558 4.9 0  -4.600000000078897 4.9 0  -4.400000000079235 4.9 0  -4.200000000079573 4.9 0  -4.000000000079908 4.9 0  -3.800000000080246 4.9 0  -3.600000000080588 4.9 0  -3.400000000080926 4.9 0  -3.200000000081264 4.9 0  -3.000000000081606 4.9 0  -2.800000000081944 4.9 0  -2.600000000082282 4.9 0  -2.40000000008262 4.9 0  -2.200000000082959 4.9 0  -2.000000000083297 4.9 0  -1.800000000083635 4.9 0  -1.600000000083973 4.9 0  -1.400000000084312 4.9 0  -1.20000000008465 4.9 0  -1.000000000084988 4.9 0  -0.8000000000853262 4.9 0  -0.6000000000856645 4.9 0  -0.4000000000860027 4.9 0  -0.2000000000863409 4.9 0  -8.667910833537462e-11 4.9 0  0.1999999999129827 4.9 0  0.3999999999126409 4.9 0  0.5999999999123027 4.9 0  0.7999999999119716 4.9 0  0.9999999999116262 4.9 0  1.199999999911295 4.9 0  1.39999999991095 4.9 0  1.599999999910619 4.9 0  1.799999999910273 4.9 0  1.999999999909939 4.9 0  2.199999999909597 4.9 0  2.399999999909262 4.9 0  2.599999999908921 4.9 0  2.799999999908582 4.9 0  2.999999999908244 4.9 0  3.199999999907906 4.9 0  3.399999999907564 4.9 0  3.599999999907226 4.9 0  3.799999999906888 4.9 0  3.999999999906549 4.9 0  4.199999999906218 4.9 0  4.399999999905873 4.9 0  4.599999999905542 4.9 0  4.799999999905197 4.9 0  4.999999999904865 4.9 0  5.19999999990452 4.9 0  5.399999999904182 4.9 0  5.599999999903844 4.9 0  5.799999999903505 4.9 0  5.999999999903167 4.9 0  6.199999999902829 4.9 0  6.399999999902491 4.9 0  6.599999999902153 4.9 0  6.799999999902379 4.9 0  6.999999999902752 4.9 0  7.199999999903724 4.9 0  7.399999999904807 4.9 0  7.59999999990589 4.9 0  7.799999999906966 4.9 0  7.999999999908056 4.9 0  8.199999999909132 4.9 0  8.399999999910214 4.9 0  8.59999999991129 4.9 0  8.79999999991238 4.9 0  8.999999999913456 4.9 0  9.199999999914539 4.9 0  9.399999999915622 4.9 0  9.599999999916704 4.9 0  9.79999999991778 4.9 0  9.99999999991887 4.9 0  10.19999999991995 4.9 0  10.39999999992103 4.9 0  10.59999999992212 4.9 0  10.79999999992319 4.9 0  10.99999999992428 4.9 0  11.19999999992536 4.9 0  11.39999999992644 4.9 0  11.59999999992752 4.9 0  11.7999999999286 4.9 0  11.99999999992968 4.9 0  12.19999999993077 4.9 0  12.39999999993184 4.9 0  12.59999999993293 4.9 0  12.79999999993401 4.9 0  12.99999999993509 4.9 0  13.19999999993617 4.9 0  13.39999999993726 4.9 0  13.59999999993834 4.9 0  13.79999999993942 4.9 0  13.99999999994051 4.9 0  14.19999999994158 4.9 0  14.39999999994266 4.9 0  14.59999999994375 4.9 0  14.79999999994483 4.9 0  14.99999999994591 4.9 0  15.199999999947 4.9 0  15.39999999994807 4.9 0  15.59999999994915 4.9 0  15.79999999995024 4.9 0  15.99999999995132 4.9 0  16.1999999999524 4.9 0  16.39999999995349 4.9 0  16.59999999995456 4.9 0  16.79999999995565 4.9 0  16.99999999995674 4.9 0  17.19999999995781 4.9 0  17.39999999995889 4.9 0  17.59999999995997 4.9 0  17.79999999996106 4.9 0  17.99999999996214 4.9 0  18.19999999996322 4.9 0  18.3999999999643 4.9 0  18.59999999996538 4.9 0  18.79999999996646 4.9 0  18.99999999996755 4.9 0  19.19999999996863 4.9 0  19.39999999996971 4.9 0  19.59999999997079 4.9 0  19.79999999997187 4.9 0  19.99999999997296 4.9 0  20.19999999997404 4.9 0  20.39999999997512 4.9 0  20.5999999999762 4.9 0  20.79999999997728 4.9 0  20.99999999997836 4.9 0  21.19999999997945 4.9 0  21.39999999998052 4.9 0  21.59999999998161 4.9 0  21.79999999998269 4.9 0  21.99999999998377 4.9 0  22.19999999998485 4.9 0  22.39999999998594 4.9 0  22.59999999998701 4.9 0  22.7999999999881 4.9 0  22.99999999998919 4.9 0  23.19999999999026 4.9 0  23.39999999999135 4.9 0  23.59999999999243 4.9 0  23.79999999999351 4.9 0  23.99999999999459 4.9 0  24.19999999999568 4.9 0  24.39999999999675 4.9 0  24.59999999999783 4.9 0  24.79999999999892 4.9 0  25 4.700000000000415 0  25 4.500000000000868 0  25 4.300000000001562 0  25 4.100000000001831 0  25 3.900000000002072 0  25 3.700000000002459 0  25 3.500000000003038 0  25 3.300000000003653 0  25 3.100000000004294 0  25 2.900000000004838 0  25 2.700000000005293 0  25 2.500000000005957 0  25 2.300000000006508 0  25 2.100000000007153 0  25 1.900000000007722 0  25 1.700000000008417 0  25 1.500000000008938 0  25 1.30000000000963 0  25 1.100000000010154 0  25 0.9000000000108268 0  25 0.7000000000114559 0  25 0.5000000000119762 0  25 0.3000000000126564 0  25 0.1000000000131926 0  25 -0.09999999998679243 0  25 -0.2999999999874587 0  25 -0.4999999999878586 0  25 -0.6999999999884441 0  25 -0.899999999988804 0  25 -1.099999999989427 0  25 -1.299999999989749 0  25 -1.499999999990411 0  25 -1.69999999999073 0  25 -1.899999999991396 0  25 -2.099999999991715 0  25 -2.299999999992381 0  25 -2.499999999993047 0  25 -2.699999999993714 0  25 -2.899999999994227 0  25 -3.099999999994698 0  25 -3.299999999994673 0  25 -3.499999999995339 0  25 -3.699999999996004 0  25 -3.89999999999667 0  25 -4.099999999997335 0  25 -4.299999999998002 0  25 -4.499999999998668 0  25 -4.699999999999335 0  24.80000000000034 -4.9 0  24.60000000000068 -4.9 0  24.40000000000101 -4.9 0  24.20000000000135 -4.9 0  24.00000000000169 -4.9 0  23.80000000000203 -4.9 0  23.60000000000237 -4.9 0  23.40000000000271 -4.9 0  23.20000000000304 -4.9 0  23.00000000000338 -4.9 0  22.80000000000372 -4.9 0  22.60000000000406 -4.9 0  22.40000000000439 -4.9 0  22.20000000000473 -4.9 0  22.00000000000507 -4.9 0  21.80000000000541 -4.9 0  21.60000000000575 -4.9 0  21.40000000000608 -4.9 0  21.20000000000642 -4.9 0  21.00000000000676 -4.9 0  20.8000000000071 -4.9 0  20.60000000000744 -4.9 0  20.40000000000777 -4.9 0  20.20000000000811 -4.9 0  20.00000000000845 -4.9 0  19.80000000000879 -4.9 0  19.60000000000912 -4.9 0  19.40000000000946 -4.9 0  19.2000000000098 -4.9 0  19.00000000001039 -4.9 0  18.80000000001108 -4.9 0  18.60000000001231 -4.9 0  18.40000000001371 -4.9 0  18.2000000000154 -4.9 0  18.00000000001716 -4.9 0  17.80000000001892 -4.9 0  17.60000000002067 -4.9 0  17.40000000002243 -4.9 0  17.20000000002419 -4.9 0  17.00000000002595 -4.9 0  16.80000000002771 -4.9 0  16.60000000002947 -4.9 0  16.40000000003123 -4.9 0  16.20000000003299 -4.9 0  16.00000000003472 -4.9 0  15.80000000003612 -4.9 0  15.60000000003748 -4.9 0  15.40000000003853 -4.9 0  15.20000000003958 -4.9 0  15.00000000004063 -4.9 0  14.80000000004168 -4.9 0  14.60000000004273 -4.9 0  14.40000000004377 -4.9 0  14.20000000004482 -4.9 0  14.00000000004587 -4.9 0  13.80000000004692 -4.9 0  13.60000000004797 -4.9 0  13.40000000004902 -4.9 0  13.20000000005007 -4.9 0  13.00000000005111 -4.9 0  12.80000000005216 -4.9 0  12.60000000005321 -4.9 0  12.40000000005426 -4.9 0  12.20000000005531 -4.9 0  12.00000000005636 -4.9 0  11.80000000005741 -4.9 0  11.60000000005846 -4.9 0  11.4000000000595 -4.9 0  11.20000000006055 -4.9 0  11.0000000000616 -4.9 0  10.80000000006265 -4.9 0  10.6000000000637 -4.9 0  10.40000000006475 -4.9 0  10.2000000000658 -4.9 0  10.00000000006684 -4.9 0  9.800000000067891 -4.9 0  9.60000000006894 -4.9 0  9.400000000069989 -4.9 0  9.200000000070727 -4.9 0  9.00000000007142 -4.9 0  8.800000000071787 -4.9 0  8.600000000072125 -4.9 0  8.400000000072467 -4.9 0  8.200000000072805 -4.9 0  8.000000000073143 -4.9 
[...]
<PointData  Vectors="f_7"> 
<DataArray  type="Float64"  Name="f_7"  NumberOfComponents="3" format="ascii">1.3153784265251429e-04 3.0499999999999999e-04 0.0000000000000000e+00  -1.3165584532488816e-04 3.0499999999999999e-04 0.0000000000000000e+00  0.0000000000000000e+00 0.0000000000000000e+00 0.0000000000000000e+00  0.0000000000000000e+00 0.0000000000000000e+00 0.0000000000000000e+00  2.3706445376052634e-05 1.5267963304591624e-04 0.0000000000000000e+00  -2.3219759131210332e-05 1.5017102355312608e-04 0.0000000000000000e+00  1.2975224926008324e-04 3.0499999999999999e-04 0.0000000000000000e+00  1.2795337047212928e-04 3.0499999999999999e-04 0.0000000000000000e+00  1.2614329300032973e-04 3.0499999999999999e-04 0.0000000000000000e+00  1.2429475871554883e-04 3.0499999999999999e-04 0.0000000000000000e+00  1.2243791216410405e-04 3.0499999999999999e-04 0.0000000000000000e+00  1.2055333866970347e-04 3.0499999999999999e-04 0.0000000000000000e+00  1.1865772988804963e-04 3.0499999999999999e-04 0.0000000000000000e+00  1.1673994567399808e-04 3.0499999999999999e-04 0.0000000000000000e+00  1.1481794518031723e-04 3.0499999999999999e-04 0.0000000000000000e+00  1.1287759094474123e-04 3.0499999999999999e-04 0.0000000000000000e+00  1.1092765957719395e-04 3.0499999999999999e-04 0.0000000000000000e+00  1.0897799805682529e-04 3.0499999999999999e-04 0.0000000000000000e+00  1.0700704718073961e-04 3.0499999999999999e-04 0.0000000000000000e+00  1.0503899761654526e-04 3.0499999999999999e-04 0.0000000000000000e+00  1.0306995339844172e-04 3.0499999999999999e-04 0.0000000000000000e+00  1.0110159718015710e-04 3.0499999999999999e-04 0.0000000000000000e+00  9.9119988855293382e-05 3.0499999999999999e-04 0.0000000000000000e+00  9.7146630772700248e-05 3.0499999999999999e-04 0.0000000000000000e+00  9.5180088953836437e-05 3.0499999999999999e-04 0.0000000000000000e+00  9.3207330892737449e-05 3.0499999999999999e-04 0.0000000000000000e+00  9.1243154450348622e-05 3.0499999999999999e-04 0.0000000000000000e+00  8.9285712992325943e-05 3.0499999999999999e-04 0.0000000000000000e+00  8.7338357502243598e-05 3.0499999999999999e-04 0.0000000000000000e+00  8.5402149574702091e-05 3.0499999999999999e-04 0.0000000000000000e+00  8.3462044304177482e-05 3.0499999999999999e-04 0.0000000000000000e+00  8.1536205838419755e-05 3.0499999999999999e-04 0.0000000000000000e+00  7.9623427672012231e-05 3.0499999999999999e-04 0.0000000000000000e+00  7.7719217178284910e-05 3.0499999999999999e-04 0.0000000000000000e+00  7.5826444490036644e-05 3.0499999999999999e-04 0.0000000000000000e+00  7.3946345922242822e-05 3.0499999999999999e-04 0.0000000000000000e+00  7.2075762964228529e-05 3.0499999999999999e-04 0.0000000000000000e+00  7.0217762851860046e-05 3.0499999999999999e-04 0.0000000000000000e+00  6.8372289115630242e-05 3.0499999999999999e-04 0.0000000000000000e+00  6.6541372514336122e-05 3.0499999999999999e-04 0.0000000000000000e+00  6.4714530564601047e-05 3.0499999999999999e-04 0.0000000000000000e+00  6.2903419569973346e-05 3.0499999999999999e-04 0.0000000000000000e+00  6.1102235679034650e-05 3.0499999999999999e-04 0.0000000000000000e+00  5.9314055890626940e-05 3.0499999999999999e-04 0.0000000000000000e+00  5.7532268729549888e-05 3.0499999999999999e-04 0.0000000000000000e+00  5.5761769789901362e-05 3.0499999999999999e-04 0.0000000000000000e+00  5.4001546106119100e-05 3.0499999999999999e-04 0.0000000000000000e+00  5.2249417754688387e-05 3.0499999999999999e-04 0.0000000000000000e+00  5.0504574603553760e-05 3.0499999999999999e-04 0.0000000000000000e+00  4.8766398195165928e-05 3.0499999999999999e-04 0.0000000000000000e+00  4.7033686275195643e-05 3.0499999999999999e-04 0.0000000000000000e+00  4.5306495754091393e-05 3.0499999999999999e-04 0.0000000000000000e+00  4.3583887901272776e-05 3.0499999999999999e-04 0.0000000000000000e+00  4.1864583303938067e-05 3.0499999999999999e-04 0.0000000000000000e+00  4.0148211314826412e-05 3.0499999999999999e-04 0.0000000000000000e+00  3.8434331336504869e-05 3.0499999999999999e-04 0.0000000000000000e+00  3.6721350852178131e-05 3.0499999999999999e-04 0.0000000000000000e+00  3.5008293858242726e-05 3.0499999999999999e-04 0.0000000000000000e+00  3.3296264695220713e-05 3.0499999999999999e-04 0.0000000000000000e+00  3.1583303614177940e-05 3.0499999999999999e-04 0.0000000000000000e+00  2.9871820280993885e-05 3.0499999999999999e-04 0.0000000000000000e+00  2.8160430806180864e-05 3.0499999999999999e-04 0.0000000000000000e+00  2.6449678950825968e-05 3.0499999999999999e-04 0.0000000000000000e+00  2.4740450534471682e-05 3.0499999999999999e-04 0.0000000000000000e+00  2.3035761732802359e-05 3.0499999999999999e-04 0.0000000000000000e+00  2.1335424823664268e-05 3.0499999999999999e-04 0.0000000000000000e+00  1.9648843665584255e-05 3.0499999999999999e-04 0.0000000000000000e+00  1.7972870282861540e-05 3.0499999999999999e-04 0.0000000000000000e+00  1.6313036988629388e-05 3.0499999999999999e-04 0.0000000000000000e+00  1.4671947437870775e-05 3.0499999999999999e-04 0.0000000000000000e+00  1.3056980226694010e-05 3.0499999999999999e-04 0.0000000000000000e+00  1.1479580450808285e-05 3.0499999999999999e-04 0.0000000000000000e+00  9.9436243208664106e-06 3.0499999999999999e-04 0.0000000000000000e+00  8.4660656315967064e-06 3.0499999999999999e-04 0.0000000000000000e+00  7.0353008324444889e-06 3.0499999999999999e-04 0.0000000000000000e+00  5.6548445785903779e-06 3.0499999999999999e-04 0.0000000000000000e+00  4.3534175481497336e-06 3.0499999999999999e-04 0.0000000000000000e+00  3.1441798734235500e-06 3.0499999999999999e-04 0.0000000000000000e+00  2.0178248077310079e-06 3.0499999999999999e-04 0.0000000000000000e+00  9.6574182831067329e-07 3.0499999999999999e-04 0.0000000000000000e+00  2.8309419742827966e-08 3.0499999999999999e-04 0.0000000000000000e+00  -8.2541438535612489e-07 3.0499999999999999e-04 0.0000000000000000e+00  -1.5758317879905417e-06 3.0499999999999999e-04 0.0000000000000000e+00  -2.2169556622407060e-06 3.0499999999999999e-04 0.0000000000000000e+00  -2.7642727591228027e-06 3.0499999999999999e-04 0.0000000000000000e+00  -3.2226864694423210e-06 3.0499999999999999e-04 0.0000000000000000e+00  -3.5876569729953456e-06 3.0499999999999999e-04 0.0000000000000000e+00  -3.8635223057677958e-06 3.0499999999999999e-04 0.0000000000000000e+00  -4.0556705423186827e-06 3.0499999999999999e-04 0.0000000000000000e+00  -4.1732320676994786e-06 3.0499999999999999e-04 0.0000000000000000e+00  -4.2325274239628391e-06 3.0499999999999999e-04 0.0000000000000000e+00  -4.2373270148825897e-06 3.0499999999999999e-04 0.0000000000000000e+00  -4.1843817928925044e-06 3.0499999999999999e-04 0.0000000000000000e+00  -4.0845401067173023e-06 3.0499999999999999e-04 0.0000000000000000e+00  -3.9566229089302328e-06 3.0499999999999999e-04 0.0000000000000000e+00  -3.8002270405733976e-06 3.0499999999999999e-04 0.0000000000000000e+00  -3.6218798111322521e-06 3.0499999999999999e-04 0.0000000000000000e+00  -3.4197719787575728e-06 3.0499999999999999e-04 0.0000000000000000e+00  -3.2091442698614205e-06 3.0499999999999999e-04 0.0000000000000000e+00  -2.9914210459142533e-06 3.0499999999999999e-04 0.0000000000000000e+00  -2.7722210826979377e-06 3.0499999999999999e-04 0.0000000000000000e+00  -2.5496318579079960e-06 3.0499999999999999e-04 0.0000000000000000e+00  -2.3324466004030369e-06 3.0499999999999999e-04 0.0000000000000000e+00  -2.1218433700798694e-06 3.0499999999999999e-04 0.0000000000000000e+00  -1.9190183253324232e-06 3.0499999999999999e-04 0.0000000000000000e+00  -1.7258823918600017e-06 3.0499999999999999e-04 0.0000000000000000e+00  -1.5443910969340195e-06 3.0499999999999999e-04 0.0000000000000000e+00  -1.3760856871856869e-06 3.0499999999999999e-04 0.0000000000000000e+00  -1.2179354985943906e-06 3.0499999999999999e-04 0.0000000000000000e+00  -1.0743282659629841e-06 3.0499999999999999e-04 0.0000000000000000e+00  -9.4473412279359537e-07 3.0499999999999999e-04 0.0000000000000000e+00  -8.2987958619038881e-07 3.0499999999999999e-04 0.0000000000000000e+00  -7.2861546601719221e-07 3.0499999999999999e-04 0.0000000000000000e+00  -6.4039364292793397e-07 3.0499999999999999e-04 0.0000000000000000e+00  -5.6451673539277372e-07 3.0499999999999999e-04 0.0000000000000000e+00  -5.0172076876689744e-07 3.0499999999999999e-04 0.0000000000000000e+00  -4.5046370999969357e-07 3.0499999999999999e-04 0.0000000000000000e+00  -4.0993317906417779e-07 3.0499999999999999e-04 0.0000000000000000e+00  -3.7829154812523005e-07 3.0499999999999999e-04 0.0000000000000000e+00  -3.5611574446408036e-07 3.0499999999999999e-04 0.0000000000000000e+00  -3.4103592129907295e-07 3.0499999999999999e-04 0.0000000000000000e+00  -3.3336655244029303e-07 3.0499999999999999e-04 0.0000000000000000e+00  -3.3094186202080123e-07 3.0499999999999999e-04 0.0000000000000000e+00  -3.3357878131507632e-07 3.0499999999999999e-04 0.0000000000000000e+00  -3.3997676603615817e-07 3.0499999999999999e-04 0.0000000000000000e+00  -3.4909054015030908e-07 3.0499999999999999e-04 0.0000000000000000e+00  -3.6016438010604220e-07 3.0499999999999999e-04 0.0000000000000000e+00  -3.7219246128444709e-07 3.0499999999999999e-04 0.0000000000000000e+00  -3.8383514995437802e-07 3.0499999999999999e-04 0.0000000000000000e+00  -3.9476145433055239e-07 3.0499999999999999e-04 0.0000000000000000e+00  -4.0410943644820796e-07 3.0499999999999999e-04 0.0000000000000000e+00  -4.1119952966917590e-07 3.0499999999999999e-04 0.0000000000000000e+00  -4.1429790623213030e-07 3.0499999999999999e-04 0.0000000000000000e+00  -4.1398148647361074e-07 3.0499999999999999e-04 0.0000000000000000e+00  -4.0927151165512888e-07 3.0499999999999999e-04 0.0000000000000000e+00  -3.9865785158713644e-07 3.0499999999999999e-04 0.0000000000000000e+00  -3.8224680693610797e-07 3.0499999999999999e-04 0.0000000000000000e+00  -3.5921005201117695e-07 3.0499999999999999e-04 0.0000000000000000e+00  -3.2863636621039812e-07 3.0499999999999999e-04 0.0000000000000000e+00  -2.9105709187284977e-07 3.0499999999999999e-04 0.0000000000000000e+00  -2.4584428728293126e-07 3.0499999999999999e-04 0.0000000000000000e+00  -1.9262508537849692e-07 3.0499999999999999e-04 0.0000000000000000e+00  -1.3062156490073454e-07 3.0499999999999999e-04 0.0000000000000000e+00  -5.9936276907006252e-08 3.0499999999999999e-04 0.0000000000000000e+00  1.9864421567437132e-08 3.0499999999999999e-04 0.0000000000000000e+00  1.0924407160999860e-07 3.0499999999999999e-04 0.0000000000000000e+00  2.0802374366320695e-07 3.0499999999999999e-04 0.0000000000000000e+00  3.1747285590992544e-07 3.0499999999999999e-04 0.0000000000000000e+00  4.3715627138588778e-07 3.0499999999999999e-04 0.0000000000000000e+00  5.6638819169962818e-07 3.0499999999999999e-04 0.0000000000000000e+00  7.0716067639996340e-07 3.0499999999999999e-04 0.0000000000000000e+00  8.5864464578471904e-07 3.0499999999999999e-04 0.0000000000000000e+00  1.0215802562822907e-06 3.0499999999999999e-04 0.0000000000000000e+00  1.1954837000622963e-06 3.0499999999999999e-04 0.0000000000000000e+00  1.3791486785443720e-06 3.0499999999999999e-04 0.0000000000000000e+00  1.5772925300442798e-06 3.0499999999999999e-04 0.0000000000000000e+00  1.7797321299292759e-06 3.0499999999999999e-04 0.0000000000000000e+00  1.9919454675595828e-06 3.0499999999999999e-04 0.0000000000000000e+00  2.2117724928322636e-06 3.0499999999999999e-04 0.0000000000000000e+00  2.4374757851101186e-06 3.0499999999999999e-04 0.0000000000000000e+00  2.6629209404249468e-06 3.0499999999999999e-04 0.0000000000000000e+00  2.8890573962504249e-06 3.0499999999999999e-04 0.0000000000000000e+00  3.1106688087564441e-06 3.0499999999999999e-04 0.0000000000000000e+00  3.3249786536454284e-06 3.0499999999999999e-04 0.0000000000000000e+00  3.5289636974589139e-06 3.0499999999999999e-04 0.0000000000000000e+00  3.7087009594808254e-06 3.0499999999999999e-04 0.0000000000000000e+00  3.8648645510984404e-06 3.0499999999999999e-04 0.0000000000000000e+00  3.9854102983951399e-06 3.0499999999999999e-04 0.0000000000000000e+00  4.0807808349722537e-06 3.0499999999999999e-04 0.0000000000000000e+00  4.1259412316339770e-06 3.0499999999999999e-04 0.0000000000000000e+00  4.1157986787715082e-06 3.0499999999999999e-04 0.0000000000000000e+00  4.0539972944919112e-06 3.0499999999999999e-04 0.0000000000000000e+00  3.9154697150059974e-06 3.0499999999999999e-04 0.0000000000000000e+00  3.7244580431582283e-06 3.0499999999999999e-04 0.0000000000000000e+00  3.4499914460708548e-06 3.0499999999999999e-04 0.0000000000000000e+00  3.0750827892939278e-06 3.0499999999999999e-04 0.0000000000000000e+00  2.6037496445283675e-06 3.0499999999999999e-04 0.0000000000000000e+00  2.0458435178077888e-06 3.0499999999999999e-04 0.0000000000000000e+00  1.3838452297828681e-06 3.0499999999999999e-04 0.0000000000000000e+00  6.1804023203322348e-07 3.0499999999999999e-04 0.0000000000000000e+00  -2.4272284341688652e-07 3.0499999999999999e-04 0.0000000000000000e+00  -1.2072642767451951e-06 3.0499999999999999e-04 0.0000000000000000e+00  -2.2333708516933175e-06 3.0499999999999999e-04 0.0000000000000000e+00  -3.3782769850195277e-06 3.0499999999999999e-04 0.0000000000000000e+00  -4.6035202963138960e-06 3.0499999999999999e-04 0.0000000000000000e+00  -5.9044779834517568e-06 3.0499999999999999e-04 0.0000000000000000e+00  -7.2785009784226972e-06 3.0499999999999999e-04 0.0000000000000000e+00  -8.7081674945927112e-06 3.0499999999999999e-04 0.0000000000000000e+00  -1.0202026317496532e-05 3.0499999999999999e-04 0.0000000000000000e+00  -1.1734743902794562e-05 3.0499999999999999e-04 0.0000000000000000e+00  -1.3315669943339870e-05 3.0499999999999999e-04 0.0000000000000000e+00  -1.4925462552124333e-05 3.0499999999999999e-04 0.0000000000000000e+00  -1.6560759989524648e-05 3.0499999999999999e-04 0.0000000000000000e+00  -1.8216412986406401e-05 3.0499999999999999e-04 0.0000000000000000e+00  -1.9892442082187584e-05 3.0499999999999999e-04 0.0000000000000000e+00  -2.1577255599558873e-05 3.0499999999999999e-04 0.0000000000000000e+00  -2.3272486221856235e-05 3.0499999999999999e-04 0.0000000000000000e+00  -2.4972653558456707e-05 3.0499999999999999e-04 0.0000000000000000e+00  -2.6676681280436532e-05 3.0499999999999999e-04 0.0000000000000000e+00  -2.8383056778192559e-05 3.0499999999999999e-04 0.0000000000000000e+00  -3.0090383432548849e-05 3.0499999999999999e-04 0.0000000000000000e+00  -3.1798156719648085e-05 3.0499999999999999e-04 0.0000000000000000e+00  -3.3505720879792253e-05 3.0499999999999999e-04 0.0000000000000000e+00  -3.5213549758191380e-05 3.0499999999999999e-04 0.0000000000000000e+00  -3.6922010749998856e-05 3.0499999999999999e-04 0.0000000000000000e+00  -3.8631806821140940e-05 3.0499999999999999e-04 0.0000000000000000e+00  -4.0341649227686394e-05 3.0499999999999999e-04 0.0000000000000000e+00  -4.2053455597516743e-05 3.0499999999999999e-04 0.0000000000000000e+00  -4.3768503086978189e-05 3.0499999999999999e-04 0.0000000000000000e+00  -4.5487021305351865e-05 3.0499999999999999e-04 0.0000000000000000e+00  -4.7210625773527889e-05 3.0499999999999999e-04 0.0000000000000000e+00  -4.8939568618159360e-05 3.0499999999999999e-04 0.0000000000000000e+00  -5.0673994520986073e-05 3.0499999999999999e-04 0.0000000000000000e+00  -5.2415852845727977e-05 3.0499999999999999e-04 0.0000000000000000e+00  -5.4166036688093660e-05 3.0499999999999999e-04 0.0000000000000000e+00  -5.5925696560164357e-05 3.0499999999999999e-04 0.0000000000000000e+00  -5.7694315296652387e-05 3.0499999999999999e-04 0.0000000000000000e+00  -5.9468913509765127e-05 3.0499999999999999e-04 0.0000000000000000e+00  -6.1256216944922202e-05 3.0499999999999999e-04 0.0000000000000000e+00  -6.3054873601658376e-05 3.0499999999999999e-04 0.0000000000000000e+00  -6.4866916360998420e-05 3.0499999999999999e-04 0.0000000000000000e+00  -6.6683966593689026e-05 3.0499999999999999e-04 0.0000000000000000e+00  -6.8516479995088035e-05 3.0499999999999999e-04 0.0000000000000000e+00  -7.0363343869596741e-05 3.0499999999999999e-04 0.0000000000000000e+00  -7.2217109098106583e-05 3.0499999999999999e-04 0.0000000000000000e+00  -7.4084958010254477e-05 3.0499999999999999e-04 0.0000000000000000e+00  -7.5965064853248960e-05 3.0499999999999999e-04 0.0000000000000000e+00  -7.7857898464280822e-05 3.0499999999999999e-04 0.0000000000000000e+00  -7.9760625937346817e-05 3.0499999999999999e-04 0.0000000000000000e+00  -8.1672056403687791e-05 3.0499999999999999e-04 0.0000000000000000e+00  -8.3594219014624117e-05 3.0499999999999999e-04 0.0000000000000000e+00  -8.5527917576165097e-05 3.0499999999999999e-04 0.0000000000000000e+00  -8.7469202306503092e-05 3.0499999999999999e-04 0.0000000000000000e+00  -8.9417768150225788e-05 3.0499999999999999e-04 0.0000000000000000e+00  -9.1373629131763227e-05 3.0499999999999999e-04 0.0000000000000000e+00  -9.3336909408247629e-05 3.0499999999999999e-04 0.0000000000000000e+00  -9.5302405318918107e-05 3.0499999999999999e-04 0.0000000000000000e+00  -9.7274539846228217e-05 3.0499999999999999e-04 0.0000000000000000e+00  -9.9244764685148156e-05 3.0499999999999999e-04 0.0000000000000000e+00  -1.0121955925630127e-04 3.0499999999999999e-04 0.0000000000000000e+00  -1.0319462036005773e-04 3.0499999999999999e-04 0.0000000000000000e+00  -1.0516450532137747e-04 3.0499999999999999e-04 0.0000000000000000e+00  -1.0713200934526201e-04 3.0499999999999999e-04 0.0000000000000000e+00  -1.0909538401802865e-04 3.0499999999999999e-04 0.0000000000000000e+00  -1.1105141021498135e-04 3.0499999999999999e-04 0.0000000000000000e+00  -1.1299711798806049e-04 3.0499999999999999e-04 0.0000000000000000e+00  -1.1493891623294074e-04 3.0499999999999999e-04 0.0000000000000000e+00  -1.1686560849301691e-04 3.0499999999999999e-04 0.0000000000000000e+00  -1.1877823332336983e-04 3.0499999999999999e-04 0.0000000000000000e+00  -1.2067549686363505e-04 3.0499999999999999e-04 0.0000000000000000e+00  -1.2255330618484450e-04 3.0499999999999999e-04 0.0000000000000000e+00  -1.2441450250645609e-04 3.0499999999999999e-04 0.0000000000000000e+00  -1.2625890299006829e-04 3.0499999999999999e-04 0.0000000000000000e+00  -1.2807159756210738e-04 3.0499999999999999e-04 0.0000000000000000e+00  -1.2986986556021916e-04 3.0499999999999999e-04 0.0000000000000000e+00  -1.3161227519457045e-04 2.9971330627884458e-04 0.0000000000000000e+00  -1.3149135372783361e-04 2.9442500467711868e-04 0.0000000000000000e+00  -1.3132074850196208e-04 2.8913489154164208e-04 0.0000000000000000e+00  -1.3105703773796292e-04 2.8384260062398303e-04 0.0000000000000000e+00  -1.3072724789530950e-04 2.7855690746306997e-04 0.0000000000000000e+00  -1.3030774587679538e-04 2.7325401522944022e-04 0.0000000000000000e+00  -1.2982298694595425e-04 2.6796113484642574e-04 0.0000000000000000e+00  -1.2926517101552413e-04 2.6265388208965865e-04 0.0000000000000000e+00  -1.2862349280343816e-04 2.5734411373771397e-04 0.0000000000000000e+00  -1.2790286574404652e-04 2.5203919309342842e-04 0.0000000000000000e+00  -1.2710604324476325e-04 2.4671502034862112e-04 0.0000000000000000e+00  -1.2622754008650102e-04 2.4138939473731437e-04 0.0000000000000000e+00  -1.2527204372821438e-04 2.3604929887941395e-04 0.0000000000000000e+00  -1.2422869574093881e-04 2.3071602664259785e-04 0.0000000000000000e+00  -1.2310771605924696e-04 2.2535499018967319e-04 0.0000000000000000e+00  -1.2189838850628687e-04 2.1997934265191268e-04 0.0000000000000000e+00  -1.2060070352022877e-04 2.1460565656704738e-04 0.0000000000000000e+00  -1.1921719384058678e-04 2.0920409478586600e-04 0.0000000000000000e+00  -1.1773911448311539e-04 2.0380180553505859e-04 0.0000000000000000e+00  -1.1616947069511894e-04 1.9837606560697992e-04 0.0000000000000000e+00  -1.1451053595272217e-04 1.9291536715299276e-04 0.0000000000000000e+00  -1.1274711645418928e-04 1.8745903847774663e-04 0.0000000000000000e+00  -1.1088947399939391e-04 1.8195950599565495e-04 0.0000000000000000e+00  -1.0892012742045631e-04 1.7644811032025513e-04 0.0000000000000000e+00  -1.0685755896007844e-04 1.7089559676765985e-04 0.0000000000000000e+00  -1.0467376300851400e-04 1.6533277104123533e-04 0.0000000000000000e+00  -1.0239250332495339e-04 1.5970762451344764e-04 0.000000000