<?xml version="1.0"?>
<VTKFile type="UnstructuredGrid"  version="0.1"  >
<UnstructuredGrid>
<Piece  NumberOfPoints="16512" NumberOfCells="32424">
<Points>
<DataArray  type="Float64"  NumberOfComponents="3"  format="ascii">-25 4.9 0  25 4.9 0  25 -4.9 0  -25 -4.9 0  -10 0 0  10 0 0  -24.80000000000034 4.9 0  -24.60000000000068 4.9 0  -24.40000000000101 4.9 0  -24.20000000000135 4.9 0  -24.00000000000169 4.9 0  -23.80000000000203 4.9 0  -23.60000000000237 4.9 0  -23.40000000000271 4.9 0  -23.20000000000304 4.9 0  -23.00000000000338 4.9 0  -22.80000000000372 4.9 0  -22.60000000000406 4.9 0  -22.40000000000439 4.9 0  -22.20000000000473 4.9 0  -22.00000000000507 4.9 0  -21.80000000000541 4.9 0  -21.60000000000575 4.9 0  -21.40000000000608 4.9 0  -21.20000000000642 4.9 0  -21.00000000000676 4.9 0  -20.8000000000071 4.9 0  -20.60000000000744 4.9 0  -20.40000000000777 4.9 0  -20.20000000000811 4.9 0  -20.00000000000845 4.9 0  -19.80000000000879 4.9 0  -19.60000000000912 4.9 0  -19.40000000000946 4.9 0  -19.2000000000098 4.9 0  -19.00000000001039 4.9 0  -18.80000000001108 4.9 0  -18.60000000001231 4.9 0  -18.40000000001371 4.9 0  -18.2000000000154 4.9 0  -18.00000000001716 4.9 0  -17.80000000001892 4.9 0  -17.60000000002067 4.9 0  -17.40000000002243 4.9 0  -17.20000000002419 4.9 0  -17.00000000002595 4.9 0  -16.80000000002771 4.9 0  -16.60000000002947 4.9 0  -16.40000000003123 4.9 0  -16.20000000003299 4.9 0  -16.00000000003472 4.9 0  -15.80000000003612 4.9 0  -15.60000000003748 4.9 0  -15.40000000003853 4.9 0  -15.20000000003958 4.9 0  -15.00000000004063 4.9 0  -14.80000000004168 4.9 0  -14.60000000004273 4.9 0  -14.40000000004377 4.9 0  -14.20000000004482 4.9 0  -14.00000000004587 4.9 0  -13.80000000004692 4.9 0  -13.60000000004797 4.9 0  -13.40000000004902 4.9 0  -13.20000000005007 4.9 0  -13.00000000005111 4.9 0  -12.80000000005216 4.9 0  -12.60000000005321 4.9 0  -12.40000000005426 4.9 0  -12.20000000005531 4.9 0  -12.00000000005636 4.9 0  -11.80000000005741 4.9 0  -11.60000000005846 4.9 0  -11.4000000000595 4.9 0  -11.20000000006055 4.9 0  -11.0000000000616 4.9 0  -10.80000000006265 4.9 0  -10.6000000000637 4.9 0  -10.40000000006475 4.9 0  -10.2000000000658 4.9 0  -10.00000000006684 4.9 0  -9.800000000067891 4.9 0  -9.60000000006894 4.9 0  -9.400000000069989 4.9 0  -9.200000000070727 4.9 0  -9.00000000007142 4.9 0  -8.800000000071787 4.9 0  -8.600000000072125 4.9 0  -8.400000000072467 4.9 0  -8.200000000072805 4.9 0  -8.000000000073143 4.9 0  -7.800000000073481 4.9 0  -7.60000000007382 4.9 0  -7.400000000074154 4.9 0  -7.200000000074493 4.9 0  -7.000000000074831 4.9 0  -6.800000000075173 4.9 0  -6.600000000075511 4.9 0  -6.400000000075849 4.9 0  -6.200000000076187 4.9 0  -6.000000000076525 4.9 0  -5.800000000076867 4.9 0  -5.600000000077205 4.9 0  -5.400000000077544 4.9 0  -5.200000000077882 4.9 0  -5.00000000007822 4.9 0  -4.800000000078558 4.9 0  -4.600000000078897 4.9 0  -4.400000000079235 4.9 0  -4.200000000079573 4.9 0  -4.000000000079908 4.9 0  -3.800000000080246 4.9 0  -3.600000000080588 4.9 0  -3.400000000080926 4.9 0  -3.200000000081264 4.9 0  -3.000000000081606 4.9 0  -2.800000000081944 4.9 0  -2.600000000082282 4.9 0  -2.40000000008262 4.9 0  -2.200000000082959 4.9 0  -2.000000000083297 4.9 0  -1.800000000083635 4.9 0  -1.600000000083973 4.9 0  -1.400000000084312 4.9 0  -1.20000000008465 4.9 0  -1.000000000084988 4.9 0  -0.8000000000853262 4.9 0  -0.6000000000856645 4.9 0  -0.4000000000860027 4.9 0  -0.2000000000863409 4.9 0  -8.667910833537462e-11 4.9 0  0.1999999999129827 4.9 0  0.3999999999126409 4.9 0  0.5999999999123027 4.9 0  0.7999999999119716 4.9 0  0.9999999999116262 4.9 0  1.199999999911295 4.9 0  1.39999999991095 4.9 0  1.599999999910619 4.9 0  1.799999999910273 4.9 0  1.999999999909939 4.9 0  2.199999999909597 4.9 0  2.399999999909262 4.9 0  2.599999999908921 4.9 0  2.799999999908582 4.9 0  2.999999999908244 4.9 0  3.199999999907906 4.9 0  3.399999999907564 4.9 0  3.599999999907226 4.9 0  3.799999999906888 4.9 0  3.999999999906549 4.9 0  4.199999999906218 4.9 0  4.399999999905873 4.9 0  4.599999999905542 4.9 0  4.799999999905197 4.9 0  4.999999999904865 4.9 0  5.19999999990452 4.9 0  5.399999999904182 4.9 0  5.599999999903844 4.9 0  5.799999999903505 4.9 0  5.999999999903167 4.9 0  6.199999999902829 4.9 0  6.399999999902491 4.9 0  6.599999999902153 4.9 0  6.799999999902379 4.9 0  6.999999999902752 4.9 0  7.199999999903724 4.9 0  7.399999999904807 4.9 0  7.59999999990589 4.9 0  7.799999999906966 4.9 0  7.999999999908056 4.9 0  8.199999999909132 4.9 0  8.399999999910214 4.9 0  8.59999999991129 4.9 0  8.79999999991238 4.9 0  8.999999999913456 4.9 0  9.199999999914539 4.9 0  9.399999999915622 4.9 0  9.599999999916704 4.9 0  9.79999999991778 4.9 0  9.99999999991887 4.9 0  10.19999999991995 4.9 0  10.39999999992103 4.9 0  10.59999999992212 4.9 0  10.79999999992319 4.9 0  10.99999999992428 4.9 0  11.19999999992536 4.9 0  11.39999999992644 4.9 0  11.59999999992752 4.9 0  11.7999999999286 4.9 0  11.99999999992968 4.9 0  12.19999999993077 4.9 0  12.39999999993184 4.9 0  12.59999999993293 4.9 0  12.79999999993401 4.9 0  12.99999999993509 4.9 0  13.19999999993617 4.9 0  13.39999999993726 4.9 0  13.59999999993834 4.9 0  13.79999999993942 4.9 0  13.99999999994051 4.9 0  14.19999999994158 4.9 0  14.39999999994266 4.9 0  14.59999999994375 4.9 0  14.79999999994483 4.9 0  14.99999999994591 4.9 0  15.199999999947 4.9 0  15.39999999994807 4.9 0  15.59999999994915 4.9 0  15.79999999995024 4.9 0  15.99999999995132 4.9 0  16.1999999999524 4.9 0  16.39999999995349 4.9 0  16.59999999995456 4.9 0  16.79999999995565 4.9 0  16.99999999995674 4.9 0  17.19999999995781 4.9 0  17.39999999995889 4.9 0  17.59999999995997 4.9 0  17.79999999996106 4.9 0  17.99999999996214 4.9 0  18.19999999996322 4.9 0  18.3999999999643 4.9 0  18.59999999996538 4.9 0  18.79999999996646 4.9 0  18.99999999996755 4.9 0  19.19999999996863 4.9 0  19.39999999996971 4.9 0  19.59999999997079 4.9 0  19.79999999997187 4.9 0  19.99999999997296 4.9 0  20.19999999997404 4.9 0  20.39999999997512 4.9 0  20.5999999999762 4.9 0  20.79999999997728 4.9 0  20.99999999997836 4.9 0  21.19999999997945 4.9 0  21.39999999998052 4.9 0  21.59999999998161 4.9 0  21.79999999998269 4.9 0  21.99999999998377 4.9 0  22.19999999998485 4.9 0  22.39999999998594 4.9 0  22.59999999998701 4.9 0  22.7999999999881 4.9 0  22.99999999998919 4.9 0  23.19999999999026 4.9 0  23.39999999999135 4.9 0  23.59999999999243 4.9 0  23.79999999999351 4.9 0  23.99999999999459 4.9 0  24.19999999999568 4.9 0  24.39999999999675 4.9 0  24.59999999999783 4.9 0  24.79999999999892 4.9 0  25 4.700000000000415 0  25 4.500000000000868 0  25 4.300000000001562 0  25 4.100000000001831 0  25 3.900000000002072 0  25 3.700000000002459 0  25 3.500000000003038 0  25 3.300000000003653 0  25 3.100000000004294 0  25 2.900000000004838 0  25 2.700000000005293 0  25 2.500000000005957 0  25 2.300000000006508 0  25 2.100000000007153 0  25 1.900000000007722 0  25 1.700000000008417 0  25 1.500000000008938 0  25 1.30000000000963 0  25 1.100000000010154 0  25 0.9000000000108268 0  25 0.7000000000114559 0  25 0.5000000000119762 0  25 0.3000000000126564 0  25 0.1000000000131926 0  25 -0.09999999998679243 0  25 -0.2999999999874587 0  25 -0.4999999999878586 0  25 -0.6999999999884441 0  25 -0.899999999988804 0  25 -1.099999999989427 0  25 -1.299999999989749 0  25 -1.499999999990411 0  25 -1.69999999999073 0  25 -1.899999999991396 0  25 -2.099999999991715 0  25 -2.299999999992381 0  25 -2.499999999993047 0  25 -2.699999999993714 0  25 -2.899999999994227 0  25 -3.099999999994698 0  25 -3.299999999994673 0  25 -3.499999999995339 0  25 -3.699999999996004 0  25 -3.89999999999667 0  25 -4.099999999997335 0  25 -4.299999999998002 0  25 -4.499999999998668 0  25 -4.699999999999335 0  24.80000000000034 -4.9 0  24.60000000000068 -4.9 0  24.40000000000101 -4.9 0  24.20000000000135 -4.9 0  24.00000000000169 -4.9 0  23.80000000000203 -4.9 0  23.60000000000237 -4.9 0  23.40000000000271 -4.9 0  23.20000000000304 -4.9 0  23.00000000000338 -4.9 0  22.80000000000372 -4.9 0  22.60000000000406 -4.9 0  22.40000000000439 -4.9 0  22.20000000000473 -4.9 0  22.00000000000507 -4.9 0  21.80000000000541 -4.9 0  21.60000000000575 -4.9 0  21.40000000000608 -4.9 0  21.20000000000642 -4.9 0  21.00000000000676 -4.9 0  20.8000000000071 -4.9 0  20.60000000000744 -4.9 0  20.40000000000777 -4.9 0  20.20000000000811 -4.9 0  20.00000000000845 -4.9 0  19.80000000000879 -4.9 0  19.60000000000912 -4.9 0  19.40000000000946 -4.9 0  19.2000000000098 -4.9 0  19.00000000001039 -4.9 0  18.80000000001108 -4.9 0  18.60000000001231 -4.9 0  18.40000000001371 -4.9 0  18.2000000000154 -4.9 0  18.00000000001716 -4.9 0  17.80000000001892 -4.9 0  17.60000000002067 -4.9 0  17.40000000002243 -4.9 0  17.20000000002419 -4.9 0  17.00000000002595 -4.9 0  16.80000000002771 -4.9 0  16.60000000002947 -4.9 0  16.40000000003123 -4.9 0  16.20000000003299 -4.9 0  16.00000000003472 -4.9 0  15.80000000003612 -4.9 0  15.60000000003748 -4.9 0  15.40000000003853 -4.9 0  15.20000000003958 -4.9 0  15.00000000004063 -4.9 0  14.80000000004168 -4.9 0  14.60000000004273 -4.9 0  14.40000000004377 -4.9 0  14.20000000004482 -4.9 0  14.00000000004587 -4.9 0  13.80000000004692 -4.9 0  13.60000000004797 -4.9 0  13.40000000004902 -4.9 0  13.20000000005007 -4.9 0  13.00000000005111 -4.9 0  12.80000000005216 -4.9 0  12.60000000005321 -4.9 0  12.40000000005426 -4.9 0  12.20000000005531 -4.9 0  12.00000000005636 -4.9 0  11.80000000005741 -4.9 0  11.60000000005846 -4.9 0  11.4000000000595 -4.9 0  11.20000000006055 -4.9 0  11.0000000000616 -4.9 0  10.80000000006265 -4.9 0  10.6000000000637 -4.9 0  10.40000000006475 -4.9 0  10.2000000000658 -4.9 0  10.00000000006684 -4.9 0  9.800000000067891 -4.9 0  9.60000000006894 -4.9 0  9.400000000069989 -4.9 0  9.200000000070727 -4.9 0  9.00000000007142 -4.9 0  8.800000000071787 -4.9 0  8.600000000072125 -4.9 0  8.400000000072467 -4.9 0  8.200000000072805 -4.9 0  8.000000000073143 -4.9 
[...]
<PointData  Vectors="f_7"> 
<DataArray  type="Float64"  Name="f_7"  NumberOfComponents="3" format="ascii">2.1576000996842491e-04 5.1000000000000004e-04 0.0000000000000000e+00  -2.1596873409388082e-04 5.1000000000000004e-04 0.0000000000000000e+00  0.0000000000000000e+00 0.0000000000000000e+00 0.0000000000000000e+00  0.0000000000000000e+00 0.0000000000000000e+00 0.0000000000000000e+00  3.7392385462080654e-05 2.5586609330842088e-04 0.0000000000000000e+00  -3.6580753830800400e-05 2.5150568236902057e-04 0.0000000000000000e+00  2.1275626615292685e-04 5.1000000000000004e-04 0.0000000000000000e+00  2.0973092343958981e-04 5.1000000000000004e-04 0.0000000000000000e+00  2.0668732058315108e-04 5.1000000000000004e-04 0.0000000000000000e+00  2.0358123720091940e-04 5.1000000000000004e-04 0.0000000000000000e+00  2.0046123488314956e-04 5.1000000000000004e-04 0.0000000000000000e+00  1.9729591070084739e-04 5.1000000000000004e-04 0.0000000000000000e+00  1.9411206563023654e-04 5.1000000000000004e-04 0.0000000000000000e+00  1.9089155059089322e-04 5.1000000000000004e-04 0.0000000000000000e+00  1.8766353916458981e-04 5.1000000000000004e-04 0.0000000000000000e+00  1.8440488300206932e-04 5.1000000000000004e-04 0.0000000000000000e+00  1.8112978234734832e-04 5.1000000000000004e-04 0.0000000000000000e+00  1.7785426176064088e-04 5.1000000000000004e-04 0.0000000000000000e+00  1.7454314175443503e-04 5.1000000000000004e-04 0.0000000000000000e+00  1.7123572411650522e-04 5.1000000000000004e-04 0.0000000000000000e+00  1.6792570106737969e-04 5.1000000000000004e-04 0.0000000000000000e+00  1.6461566446108878e-04 5.1000000000000004e-04 0.0000000000000000e+00  1.6128292790983722e-04 5.1000000000000004e-04 0.0000000000000000e+00  1.5796227336578380e-04 5.1000000000000004e-04 0.0000000000000000e+00  1.5465163915562272e-04 5.1000000000000004e-04 0.0000000000000000e+00  1.5132950795765591e-04 5.1000000000000004e-04 0.0000000000000000e+00  1.4801989343306093e-04 5.1000000000000004e-04 0.0000000000000000e+00  1.4471985835146808e-04 5.1000000000000004e-04 0.0000000000000000e+00  1.4143470904238136e-04 5.1000000000000004e-04 0.0000000000000000e+00  1.3816623787098312e-04 5.1000000000000004e-04 0.0000000000000000e+00  1.3489003236332448e-04 5.1000000000000004e-04 0.0000000000000000e+00  1.3163518729553985e-04 5.1000000000000004e-04 0.0000000000000000e+00  1.2839989974852047e-04 5.1000000000000004e-04 0.0000000000000000e+00  1.2517680470148316e-04 5.1000000000000004e-04 0.0000000000000000e+00  1.2197049426160220e-04 5.1000000000000004e-04 0.0000000000000000e+00  1.1878278748601501e-04 5.1000000000000004e-04 0.0000000000000000e+00  1.1560850882430659e-04 5.1000000000000004e-04 0.0000000000000000e+00  1.1245250523596922e-04 5.1000000000000004e-04 0.0000000000000000e+00  1.0931481369212098e-04 5.1000000000000004e-04 0.0000000000000000e+00  1.0619824614424676e-04 5.1000000000000004e-04 0.0000000000000000e+00  1.0308630187287603e-04 5.1000000000000004e-04 0.0000000000000000e+00  9.9997028030022718e-05 5.1000000000000004e-04 0.0000000000000000e+00  9.6921197395651083e-05 5.1000000000000004e-04 0.0000000000000000e+00  9.3863370446848712e-05 5.1000000000000004e-04 0.0000000000000000e+00  9.0813367199641515e-05 5.1000000000000004e-04 0.0000000000000000e+00  8.7778397373824315e-05 5.1000000000000004e-04 0.0000000000000000e+00  8.4756663125426694e-05 5.1000000000000004e-04 0.0000000000000000e+00  8.1744517667766572e-05 5.1000000000000004e-04 0.0000000000000000e+00  7.8740463291657244e-05 5.1000000000000004e-04 0.0000000000000000e+00  7.5743410354130921e-05 5.1000000000000004e-04 0.0000000000000000e+00  7.2751166129039394e-05 5.1000000000000004e-04 0.0000000000000000e+00  6.9763497279507573e-05 5.1000000000000004e-04 0.0000000000000000e+00  6.6778999467460173e-05 5.1000000000000004e-04 0.0000000000000000e+00  6.3794818716883710e-05 5.1000000000000004e-04 0.0000000000000000e+00  6.0810158233430504e-05 5.1000000000000004e-04 0.0000000000000000e+00  5.7824927920940478e-05 5.1000000000000004e-04 0.0000000000000000e+00  5.4835640971147198e-05 5.1000000000000004e-04 0.0000000000000000e+00  5.1841193628784495e-05 5.1000000000000004e-04 0.0000000000000000e+00  4.8842775741331039e-05 5.1000000000000004e-04 0.0000000000000000e+00  4.5835712465693116e-05 5.1000000000000004e-04 0.0000000000000000e+00  4.2827765928718739e-05 5.1000000000000004e-04 0.0000000000000000e+00  3.9813760795403069e-05 5.1000000000000004e-04 0.0000000000000000e+00  3.6795469126365138e-05 5.1000000000000004e-04 0.0000000000000000e+00  3.3773853963881044e-05 5.1000000000000004e-04 0.0000000000000000e+00  3.0755229319674123e-05 5.1000000000000004e-04 0.0000000000000000e+00  2.7738205872254748e-05 5.1000000000000004e-04 0.0000000000000000e+00  2.4742300405521972e-05 5.1000000000000004e-04 0.0000000000000000e+00  2.1760074286505026e-05 5.1000000000000004e-04 0.0000000000000000e+00  1.8802149808338739e-05 5.1000000000000004e-04 0.0000000000000000e+00  1.5873198916751660e-05 5.1000000000000004e-04 0.0000000000000000e+00  1.2985998322521839e-05 5.1000000000000004e-04 0.0000000000000000e+00  1.0164927930550040e-05 5.1000000000000004e-04 0.0000000000000000e+00  7.4149878712498890e-06 5.1000000000000004e-04 0.0000000000000000e+00  4.7683714731989343e-06 5.1000000000000004e-04 0.0000000000000000e+00  2.2033591368751328e-06 5.1000000000000004e-04 0.0000000000000000e+00  -2.7300772571744155e-07 5.1000000000000004e-04 0.0000000000000000e+00  -2.6065473884944122e-06 5.1000000000000004e-04 0.0000000000000000e+00  -4.7720673573500123e-06 5.1000000000000004e-04 0.0000000000000000e+00  -6.7864506631349108e-06 5.1000000000000004e-04 0.0000000000000000e+00  -8.6658587077295848e-06 5.1000000000000004e-04 0.0000000000000000e+00  -1.0331328522626159e-05 5.1000000000000004e-04 0.0000000000000000e+00  -1.1842286744395627e-05 5.1000000000000004e-04 0.0000000000000000e+00  -1.3160499942988044e-05 5.1000000000000004e-04 0.0000000000000000e+00  -1.4272448217278143e-05 5.1000000000000004e-04 0.0000000000000000e+00  -1.5206633002951015e-05 5.1000000000000004e-04 0.0000000000000000e+00  -1.5971194070156555e-05 5.1000000000000004e-04 0.0000000000000000e+00  -1.6555748818037006e-05 5.1000000000000004e-04 0.0000000000000000e+00  -1.6967092123445068e-05 5.1000000000000004e-04 0.0000000000000000e+00  -1.7213983162425620e-05 5.1000000000000004e-04 0.0000000000000000e+00  -1.7312173834066817e-05 5.1000000000000004e-04 0.0000000000000000e+00  -1.7293184670341975e-05 5.1000000000000004e-04 0.0000000000000000e+00  -1.7162796068996756e-05 5.1000000000000004e-04 0.0000000000000000e+00  -1.6912401655860417e-05 5.1000000000000004e-04 0.0000000000000000e+00  -1.6561760746981241e-05 5.1000000000000004e-04 0.0000000000000000e+00  -1.6149165351551367e-05 5.1000000000000004e-04 0.0000000000000000e+00  -1.5672635630385073e-05 5.1000000000000004e-04 0.0000000000000000e+00  -1.5143942214724162e-05 5.1000000000000004e-04 0.0000000000000000e+00  -1.4558315163922366e-05 5.1000000000000004e-04 0.0000000000000000e+00  -1.3947501377125778e-05 5.1000000000000004e-04 0.0000000000000000e+00  -1.3313833393350415e-05 5.1000000000000004e-04 0.0000000000000000e+00  -1.2669196978651836e-05 5.1000000000000004e-04 0.0000000000000000e+00  -1.2007534593327893e-05 5.1000000000000004e-04 0.0000000000000000e+00  -1.1350487147193481e-05 5.1000000000000004e-04 0.0000000000000000e+00  -1.0699508298660055e-05 5.1000000000000004e-04 0.0000000000000000e+00  -1.0056664839860983e-05 5.1000000000000004e-04 0.0000000000000000e+00  -9.4271650100593254e-06 5.1000000000000004e-04 0.0000000000000000e+00  -8.8161439880601936e-06 5.1000000000000004e-04 0.0000000000000000e+00  -8.2271589410546749e-06 5.1000000000000004e-04 0.0000000000000000e+00  -7.6536963464693911e-06 5.1000000000000004e-04 0.0000000000000000e+00  -7.1072383536242938e-06 5.1000000000000004e-04 0.0000000000000000e+00  -6.5867530538203201e-06 5.1000000000000004e-04 0.0000000000000000e+00  -6.0944027652023081e-06 5.1000000000000004e-04 0.0000000000000000e+00  -5.6289935180301478e-06 5.1000000000000004e-04 0.0000000000000000e+00  -5.1895771545165370e-06 5.1000000000000004e-04 0.0000000000000000e+00  -4.7760458545516186e-06 5.1000000000000004e-04 0.0000000000000000e+00  -4.3904354035595298e-06 5.1000000000000004e-04 0.0000000000000000e+00  -4.0301277791711293e-06 5.1000000000000004e-04 0.0000000000000000e+00  -3.6940110288532687e-06 5.1000000000000004e-04 0.0000000000000000e+00  -3.3785796202521167e-06 5.1000000000000004e-04 0.0000000000000000e+00  -3.0857463425465672e-06 5.1000000000000004e-04 0.0000000000000000e+00  -2.8103731557078819e-06 5.1000000000000004e-04 0.0000000000000000e+00  -2.5538131280864480e-06 5.1000000000000004e-04 0.0000000000000000e+00  -2.3111030295659286e-06 5.1000000000000004e-04 0.0000000000000000e+00  -2.0821987749790063e-06 5.1000000000000004e-04 0.0000000000000000e+00  -1.8640363904393451e-06 5.1000000000000004e-04 0.0000000000000000e+00  -1.6542701381531472e-06 5.1000000000000004e-04 0.0000000000000000e+00  -1.4510261440525050e-06 5.1000000000000004e-04 0.0000000000000000e+00  -1.2518551182613529e-06 5.1000000000000004e-04 0.0000000000000000e+00  -1.0538309648064764e-06 5.1000000000000004e-04 0.0000000000000000e+00  -8.5528534174121669e-07 5.1000000000000004e-04 0.0000000000000000e+00  -6.5437145972088756e-07 5.1000000000000004e-04 0.0000000000000000e+00  -4.4929895895082996e-07 5.1000000000000004e-04 0.0000000000000000e+00  -2.3589328238320067e-07 5.1000000000000004e-04 0.0000000000000000e+00  -1.5039239096295205e-08 5.1000000000000004e-04 0.0000000000000000e+00  2.1568581922943184e-07 5.1000000000000004e-04 0.0000000000000000e+00  4.5976753607751903e-07 5.1000000000000004e-04 0.0000000000000000e+00  7.1734764211899005e-07 5.1000000000000004e-04 0.0000000000000000e+00  9.9044138537816079e-07 5.1000000000000004e-04 0.0000000000000000e+00  1.2812586072283239e-06 5.1000000000000004e-04 0.0000000000000000e+00  1.5886274929508789e-06 5.1000000000000004e-04 0.0000000000000000e+00  1.9138833127787202e-06 5.1000000000000004e-04 0.0000000000000000e+00  2.2579549267836139e-06 5.1000000000000004e-04 0.0000000000000000e+00  2.6225139167460361e-06 5.1000000000000004e-04 0.0000000000000000e+00  3.0071198103451846e-06 5.1000000000000004e-04 0.0000000000000000e+00  3.4124632068217555e-06 5.1000000000000004e-04 0.0000000000000000e+00  3.8392491956427856e-06 5.1000000000000004e-04 0.0000000000000000e+00  4.2865641979670755e-06 5.1000000000000004e-04 0.0000000000000000e+00  4.7567729215043669e-06 5.1000000000000004e-04 0.0000000000000000e+00  5.2485360888002524e-06 5.1000000000000004e-04 0.0000000000000000e+00  5.7591317955771444e-06 5.1000000000000004e-04 0.0000000000000000e+00  6.2927527790097672e-06 5.1000000000000004e-04 0.0000000000000000e+00  6.8472068659245128e-06 5.1000000000000004e-04 0.0000000000000000e+00  7.4221568249590826e-06 5.1000000000000004e-04 0.0000000000000000e+00  8.0165747621986040e-06 5.1000000000000004e-04 0.0000000000000000e+00  8.6274458235870765e-06 5.1000000000000004e-04 0.0000000000000000e+00  9.2630293648427083e-06 5.1000000000000004e-04 0.0000000000000000e+00  9.9019130833454041e-06 5.1000000000000004e-04 0.0000000000000000e+00  1.0554314936805993e-05 5.1000000000000004e-04 0.0000000000000000e+00  1.1215645790202687e-05 5.1000000000000004e-04 0.0000000000000000e+00  1.1882838676404956e-05 5.1000000000000004e-04 0.0000000000000000e+00  1.2540181380804658e-05 5.1000000000000004e-04 0.0000000000000000e+00  1.3191863343139095e-05 5.1000000000000004e-04 0.0000000000000000e+00  1.3826322274368463e-05 5.1000000000000004e-04 0.0000000000000000e+00  1.4437798635589253e-05 5.1000000000000004e-04 0.0000000000000000e+00  1.5020463125926430e-05 5.1000000000000004e-04 0.0000000000000000e+00  1.5545914726148150e-05 5.1000000000000004e-04 0.0000000000000000e+00  1.6016308832024089e-05 5.1000000000000004e-04 0.0000000000000000e+00  1.6408132539818326e-05 5.1000000000000004e-04 0.0000000000000000e+00  1.6745391567633383e-05 5.1000000000000004e-04 0.0000000000000000e+00  1.6976648032666755e-05 5.1000000000000004e-04 0.0000000000000000e+00  1.7093660539113021e-05 5.1000000000000004e-04 0.0000000000000000e+00  1.7105728640324610e-05 5.1000000000000004e-04 0.0000000000000000e+00  1.6963987642572353e-05 5.1000000000000004e-04 0.0000000000000000e+00  1.6718580551708376e-05 5.1000000000000004e-04 0.0000000000000000e+00  1.6309299898677031e-05 5.1000000000000004e-04 0.0000000000000000e+00  1.5705446039234186e-05 5.1000000000000004e-04 0.0000000000000000e+00  1.4915071487446387e-05 5.1000000000000004e-04 0.0000000000000000e+00  1.3960540235603214e-05 5.1000000000000004e-04 0.0000000000000000e+00  1.2809118487347306e-05 5.1000000000000004e-04 0.0000000000000000e+00  1.1462664962717446e-05 5.1000000000000004e-04 0.0000000000000000e+00  9.9398641034809117e-06 5.1000000000000004e-04 0.0000000000000000e+00  8.2233667524285711e-06 5.1000000000000004e-04 0.0000000000000000e+00  6.3954406563588217e-06 5.1000000000000004e-04 0.0000000000000000e+00  4.3464361309652364e-06 5.1000000000000004e-04 0.0000000000000000e+00  2.1517264257155011e-06 5.1000000000000004e-04 0.0000000000000000e+00  -1.8002961832011360e-07 5.1000000000000004e-04 0.0000000000000000e+00  -2.6432231169935319e-06 5.1000000000000004e-04 0.0000000000000000e+00  -5.2046831117146152e-06 5.1000000000000004e-04 0.0000000000000000e+00  -7.8816996990722580e-06 5.1000000000000004e-04 0.0000000000000000e+00  -1.0625191975328511e-05 5.1000000000000004e-04 0.0000000000000000e+00  -1.3452850072057897e-05 5.1000000000000004e-04 0.0000000000000000e+00  -1.6328885439726259e-05 5.1000000000000004e-04 0.0000000000000000e+00  -1.9246759563984567e-05 5.1000000000000004e-04 0.0000000000000000e+00  -2.2196433971432021e-05 5.1000000000000004e-04 0.0000000000000000e+00  -2.5179030291991955e-05 5.1000000000000004e-04 0.0000000000000000e+00  -2.8171908483742477e-05 5.1000000000000004e-04 0.0000000000000000e+00  -3.1178464756827219e-05 5.1000000000000004e-04 0.0000000000000000e+00  -3.4188704744573434e-05 5.1000000000000004e-04 0.0000000000000000e+00  -3.7200404535217217e-05 5.1000000000000004e-04 0.0000000000000000e+00  -4.0210680915833974e-05 5.1000000000000004e-04 0.0000000000000000e+00  -4.3217299805195735e-05 5.1000000000000004e-04 0.0000000000000000e+00  -4.6219070924517940e-05 5.1000000000000004e-04 0.0000000000000000e+00  -4.9214681618654850e-05 5.1000000000000004e-04 0.0000000000000000e+00  -5.2206142953071203e-05 5.1000000000000004e-04 0.0000000000000000e+00  -5.5192540504651605e-05 5.1000000000000004e-04 0.0000000000000000e+00  -5.8175071804488527e-05 5.1000000000000004e-04 0.0000000000000000e+00  -6.1153689595236154e-05 5.1000000000000004e-04 0.0000000000000000e+00  -6.4129705980906922e-05 5.1000000000000004e-04 0.0000000000000000e+00  -6.7106402975390528e-05 5.1000000000000004e-04 0.0000000000000000e+00  -7.0084002214358893e-05 5.1000000000000004e-04 0.0000000000000000e+00  -7.3065290456341981e-05 5.1000000000000004e-04 0.0000000000000000e+00  -7.6050936013289451e-05 5.1000000000000004e-04 0.0000000000000000e+00  -7.9041200370173894e-05 5.1000000000000004e-04 0.0000000000000000e+00  -8.2039802194020675e-05 5.1000000000000004e-04 0.0000000000000000e+00  -8.5048183516715811e-05 5.1000000000000004e-04 0.0000000000000000e+00  -8.8068344594058283e-05 5.1000000000000004e-04 0.0000000000000000e+00  -9.1099764068435545e-05 5.1000000000000004e-04 0.0000000000000000e+00  -9.4138134311685931e-05 5.1000000000000004e-04 0.0000000000000000e+00  -9.7193808305841981e-05 5.1000000000000004e-04 0.0000000000000000e+00  -1.0026519786415718e-04 5.1000000000000004e-04 0.0000000000000000e+00  -1.0335550071492019e-04 5.1000000000000004e-04 0.0000000000000000e+00  -1.0645180910167677e-04 5.1000000000000004e-04 0.0000000000000000e+00  -1.0957054434846055e-04 5.1000000000000004e-04 0.0000000000000000e+00  -1.1271008870845884e-04 5.1000000000000004e-04 0.0000000000000000e+00  -1.1585880748310515e-04 5.1000000000000004e-04 0.0000000000000000e+00  -1.1902830463640308e-04 5.1000000000000004e-04 0.0000000000000000e+00  -1.2221579067856568e-04 5.1000000000000004e-04 0.0000000000000000e+00  -1.2542208504633503e-04 5.1000000000000004e-04 0.0000000000000000e+00  -1.2864260986085934e-04 5.1000000000000004e-04 0.0000000000000000e+00  -1.3187537190365156e-04 5.1000000000000004e-04 0.0000000000000000e+00  -1.3512403827514580e-04 5.1000000000000004e-04 0.0000000000000000e+00  -1.3838989895059272e-04 5.1000000000000004e-04 0.0000000000000000e+00  -1.4166640160073052e-04 5.1000000000000004e-04 0.0000000000000000e+00  -1.4495328407511686e-04 5.1000000000000004e-04 0.0000000000000000e+00  -1.4825052627949635e-04 5.1000000000000004e-04 0.0000000000000000e+00  -1.5155854920917972e-04 5.1000000000000004e-04 0.0000000000000000e+00  -1.5486878106058528e-04 5.1000000000000004e-04 0.0000000000000000e+00  -1.5818847098799391e-04 5.1000000000000004e-04 0.0000000000000000e+00  -1.6150389456994589e-04 5.1000000000000004e-04 0.0000000000000000e+00  -1.6482550856687352e-04 5.1000000000000004e-04 0.0000000000000000e+00  -1.6814639686777886e-04 5.1000000000000004e-04 0.0000000000000000e+00  -1.7145771704063154e-04 5.1000000000000004e-04 0.0000000000000000e+00  -1.7476412062342327e-04 5.1000000000000004e-04 0.0000000000000000e+00  -1.7806282948617109e-04 5.1000000000000004e-04 0.0000000000000000e+00  -1.8134862767793007e-04 5.1000000000000004e-04 0.0000000000000000e+00  -1.8461672044245471e-04 5.1000000000000004e-04 0.0000000000000000e+00  -1.8787768156379987e-04 5.1000000000000004e-04 0.0000000000000000e+00  -1.9111328813493979e-04 5.1000000000000004e-04 0.0000000000000000e+00  -1.9432533962972478e-04 5.1000000000000004e-04 0.0000000000000000e+00  -1.9751181038832124e-04 5.1000000000000004e-04 0.0000000000000000e+00  -2.0066616513365139e-04 5.1000000000000004e-04 0.0000000000000000e+00  -2.0379311885138101e-04 5.1000000000000004e-04 0.0000000000000000e+00  -2.0689242678293112e-04 5.1000000000000004e-04 0.0000000000000000e+00  -2.0994020178544085e-04 5.1000000000000004e-04 0.0000000000000000e+00  -2.1296445608096900e-04 5.1000000000000004e-04 0.0000000000000000e+00  -2.1589850984662348e-04 5.0110216834549804e-04 0.0000000000000000e+00  -2.1570358552669641e-04 4.9220187639225743e-04 0.0000000000000000e+00  -2.1542861661304151e-04 4.8329886746178665e-04 0.0000000000000000e+00  -2.1500344083933982e-04 4.7439263534300978e-04 0.0000000000000000e+00  -2.1447165319180114e-04 4.6549751563673344e-04 0.0000000000000000e+00  -2.1379513731235899e-04 4.5657506237964992e-04 0.0000000000000000e+00  -2.1301325116002202e-04 4.4766939658587421e-04 0.0000000000000000e+00  -2.1211326745025413e-04 4.3874125852192715e-04 0.0000000000000000e+00  -2.1107767854369077e-04 4.2980985159555727e-04 0.0000000000000000e+00  -2.0991455598287561e-04 4.2088722685219078e-04 0.0000000000000000e+00  -2.0862773327805058e-04 4.1193443868341975e-04 0.0000000000000000e+00  -2.0720884741318399e-04 4.0298036414101074e-04 0.0000000000000000e+00  -2.0566471034078363e-04 3.9400401144178268e-04 0.0000000000000000e+00  -2.0397816662735910e-04 3.8504007917463285e-04 0.0000000000000000e+00  -2.0216529371248931e-04 3.7603229204544674e-04 0.0000000000000000e+00  -2.0020851624932606e-04 3.6700217263290521e-04 0.0000000000000000e+00  -1.9810807077234166e-04 3.5797684058120509e-04 0.0000000000000000e+00  -1.9586719349623446e-04 3.4890766314053405e-04 0.0000000000000000e+00  -1.9347230437628718e-04 3.3983900704744426e-04 0.0000000000000000e+00  -1.9092769158047973e-04 3.3073395926079801e-04 0.0000000000000000e+00  -1.8823644406756613e-04 3.2157350910995061e-04 0.0000000000000000e+00  -1.8537459675375059e-04 3.1242218888328968e-04 0.0000000000000000e+00  -1.8235751448652309e-04 3.0320201684480260e-04 0.0000000000000000e+00  -1.7915777616421918e-04 2.9396445559933183e-04 0.0000000000000000e+00  -1.7580395039674588e-04 2.8466154293661425e-04 0.0000000000000000e+00  -1.7225125169046930e-04 2.7534405135926885e-04 0.0000000000000000e+00  -1.6853703169443537e-04 2.6592635504975196e-04 0.0000000000000000e+