<?xml version="1.0"?>
<VTKFile type="UnstructuredGrid"  version="0.1"  >
<UnstructuredGrid>
<Piece  NumberOfPoints="16512" NumberOfCells="32424">
<Points>
<DataArray  type="Float64"  NumberOfComponents="3"  format="ascii">-25 4.9 0  25 4.9 0  25 -4.9 0  -25 -4.9 0  -10 0 0  10 0 0  -24.80000000000034 4.9 0  -24.60000000000068 4.9 0  -24.40000000000101 4.9 0  -24.20000000000135 4.9 0  -24.00000000000169 4.9 0  -23.80000000000203 4.9 0  -23.60000000000237 4.9 0  -23.40000000000271 4.9 0  -23.20000000000304 4.9 0  -23.00000000000338 4.9 0  -22.80000000000372 4.9 0  -22.60000000000406 4.9 0  -22.40000000000439 4.9 0  -22.20000000000473 4.9 0  -22.00000000000507 4.9 0  -21.80000000000541 4.9 0  -21.60000000000575 4.9 0  -21.40000000000608 4.9 0  -21.20000000000642 4.9 0  -21.00000000000676 4.9 0  -20.8000000000071 4.9 0  -20.60000000000744 4.9 0  -20.40000000000777 4.9 0  -20.20000000000811 4.9 0  -20.00000000000845 4.9 0  -19.80000000000879 4.9 0  -19.60000000000912 4.9 0  -19.40000000000946 4.9 0  -19.2000000000098 4.9 0  -19.00000000001039 4.9 0  -18.80000000001108 4.9 0  -18.60000000001231 4.9 0  -18.40000000001371 4.9 0  -18.2000000000154 4.9 0  -18.00000000001716 4.9 0  -17.80000000001892 4.9 0  -17.60000000002067 4.9 0  -17.40000000002243 4.9 0  -17.20000000002419 4.9 0  -17.00000000002595 4.9 0  -16.80000000002771 4.9 0  -16.60000000002947 4.9 0  -16.40000000003123 4.9 0  -16.20000000003299 4.9 0  -16.00000000003472 4.9 0  -15.80000000003612 4.9 0  -15.60000000003748 4.9 0  -15.40000000003853 4.9 0  -15.20000000003958 4.9 0  -15.00000000004063 4.9 0  -14.80000000004168 4.9 0  -14.60000000004273 4.9 0  -14.40000000004377 4.9 0  -14.20000000004482 4.9 0  -14.00000000004587 4.9 0  -13.80000000004692 4.9 0  -13.60000000004797 4.9 0  -13.40000000004902 4.9 0  -13.20000000005007 4.9 0  -13.00000000005111 4.9 0  -12.80000000005216 4.9 0  -12.60000000005321 4.9 0  -12.40000000005426 4.9 0  -12.20000000005531 4.9 0  -12.00000000005636 4.9 0  -11.80000000005741 4.9 0  -11.60000000005846 4.9 0  -11.4000000000595 4.9 0  -11.20000000006055 4.9 0  -11.0000000000616 4.9 0  -10.80000000006265 4.9 0  -10.6000000000637 4.9 0  -10.40000000006475 4.9 0  -10.2000000000658 4.9 0  -10.00000000006684 4.9 0  -9.800000000067891 4.9 0  -9.60000000006894 4.9 0  -9.400000000069989 4.9 0  -9.200000000070727 4.9 0  -9.00000000007142 4.9 0  -8.800000000071787 4.9 0  -8.600000000072125 4.9 0  -8.400000000072467 4.9 0  -8.200000000072805 4.9 0  -8.000000000073143 4.9 0  -7.800000000073481 4.9 0  -7.60000000007382 4.9 0  -7.400000000074154 4.9 0  -7.200000000074493 4.9 0  -7.000000000074831 4.9 0  -6.800000000075173 4.9 0  -6.600000000075511 4.9 0  -6.400000000075849 4.9 0  -6.200000000076187 4.9 0  -6.000000000076525 4.9 0  -5.800000000076867 4.9 0  -5.600000000077205 4.9 0  -5.400000000077544 4.9 0  -5.200000000077882 4.9 0  -5.00000000007822 4.9 0  -4.800000000078558 4.9 0  -4.600000000078897 4.9 0  -4.400000000079235 4.9 0  -4.200000000079573 4.9 0  -4.000000000079908 4.9 0  -3.800000000080246 4.9 0  -3.600000000080588 4.9 0  -3.400000000080926 4.9 0  -3.200000000081264 4.9 0  -3.000000000081606 4.9 0  -2.800000000081944 4.9 0  -2.600000000082282 4.9 0  -2.40000000008262 4.9 0  -2.200000000082959 4.9 0  -2.000000000083297 4.9 0  -1.800000000083635 4.9 0  -1.600000000083973 4.9 0  -1.400000000084312 4.9 0  -1.20000000008465 4.9 0  -1.000000000084988 4.9 0  -0.8000000000853262 4.9 0  -0.6000000000856645 4.9 0  -0.4000000000860027 4.9 0  -0.2000000000863409 4.9 0  -8.667910833537462e-11 4.9 0  0.1999999999129827 4.9 0  0.3999999999126409 4.9 0  0.5999999999123027 4.9 0  0.7999999999119716 4.9 0  0.9999999999116262 4.9 0  1.199999999911295 4.9 0  1.39999999991095 4.9 0  1.599999999910619 4.9 0  1.799999999910273 4.9 0  1.999999999909939 4.9 0  2.199999999909597 4.9 0  2.399999999909262 4.9 0  2.599999999908921 4.9 0  2.799999999908582 4.9 0  2.999999999908244 4.9 0  3.199999999907906 4.9 0  3.399999999907564 4.9 0  3.599999999907226 4.9 0  3.799999999906888 4.9 0  3.999999999906549 4.9 0  4.199999999906218 4.9 0  4.399999999905873 4.9 0  4.599999999905542 4.9 0  4.799999999905197 4.9 0  4.999999999904865 4.9 0  5.19999999990452 4.9 0  5.399999999904182 4.9 0  5.599999999903844 4.9 0  5.799999999903505 4.9 0  5.999999999903167 4.9 0  6.199999999902829 4.9 0  6.399999999902491 4.9 0  6.599999999902153 4.9 0  6.799999999902379 4.9 0  6.999999999902752 4.9 0  7.199999999903724 4.9 0  7.399999999904807 4.9 0  7.59999999990589 4.9 0  7.799999999906966 4.9 0  7.999999999908056 4.9 0  8.199999999909132 4.9 0  8.399999999910214 4.9 0  8.59999999991129 4.9 0  8.79999999991238 4.9 0  8.999999999913456 4.9 0  9.199999999914539 4.9 0  9.399999999915622 4.9 0  9.599999999916704 4.9 0  9.79999999991778 4.9 0  9.99999999991887 4.9 0  10.19999999991995 4.9 0  10.39999999992103 4.9 0  10.59999999992212 4.9 0  10.79999999992319 4.9 0  10.99999999992428 4.9 0  11.19999999992536 4.9 0  11.39999999992644 4.9 0  11.59999999992752 4.9 0  11.7999999999286 4.9 0  11.99999999992968 4.9 0  12.19999999993077 4.9 0  12.39999999993184 4.9 0  12.59999999993293 4.9 0  12.79999999993401 4.9 0  12.99999999993509 4.9 0  13.19999999993617 4.9 0  13.39999999993726 4.9 0  13.59999999993834 4.9 0  13.79999999993942 4.9 0  13.99999999994051 4.9 0  14.19999999994158 4.9 0  14.39999999994266 4.9 0  14.59999999994375 4.9 0  14.79999999994483 4.9 0  14.99999999994591 4.9 0  15.199999999947 4.9 0  15.39999999994807 4.9 0  15.59999999994915 4.9 0  15.79999999995024 4.9 0  15.99999999995132 4.9 0  16.1999999999524 4.9 0  16.39999999995349 4.9 0  16.59999999995456 4.9 0  16.79999999995565 4.9 0  16.99999999995674 4.9 0  17.19999999995781 4.9 0  17.39999999995889 4.9 0  17.59999999995997 4.9 0  17.79999999996106 4.9 0  17.99999999996214 4.9 0  18.19999999996322 4.9 0  18.3999999999643 4.9 0  18.59999999996538 4.9 0  18.79999999996646 4.9 0  18.99999999996755 4.9 0  19.19999999996863 4.9 0  19.39999999996971 4.9 0  19.59999999997079 4.9 0  19.79999999997187 4.9 0  19.99999999997296 4.9 0  20.19999999997404 4.9 0  20.39999999997512 4.9 0  20.5999999999762 4.9 0  20.79999999997728 4.9 0  20.99999999997836 4.9 0  21.19999999997945 4.9 0  21.39999999998052 4.9 0  21.59999999998161 4.9 0  21.79999999998269 4.9 0  21.99999999998377 4.9 0  22.19999999998485 4.9 0  22.39999999998594 4.9 0  22.59999999998701 4.9 0  22.7999999999881 4.9 0  22.99999999998919 4.9 0  23.19999999999026 4.9 0  23.39999999999135 4.9 0  23.59999999999243 4.9 0  23.79999999999351 4.9 0  23.99999999999459 4.9 0  24.19999999999568 4.9 0  24.39999999999675 4.9 0  24.59999999999783 4.9 0  24.79999999999892 4.9 0  25 4.700000000000415 0  25 4.500000000000868 0  25 4.300000000001562 0  25 4.100000000001831 0  25 3.900000000002072 0  25 3.700000000002459 0  25 3.500000000003038 0  25 3.300000000003653 0  25 3.100000000004294 0  25 2.900000000004838 0  25 2.700000000005293 0  25 2.500000000005957 0  25 2.300000000006508 0  25 2.100000000007153 0  25 1.900000000007722 0  25 1.700000000008417 0  25 1.500000000008938 0  25 1.30000000000963 0  25 1.100000000010154 0  25 0.9000000000108268 0  25 0.7000000000114559 0  25 0.5000000000119762 0  25 0.3000000000126564 0  25 0.1000000000131926 0  25 -0.09999999998679243 0  25 -0.2999999999874587 0  25 -0.4999999999878586 0  25 -0.6999999999884441 0  25 -0.899999999988804 0  25 -1.099999999989427 0  25 -1.299999999989749 0  25 -1.499999999990411 0  25 -1.69999999999073 0  25 -1.899999999991396 0  25 -2.099999999991715 0  25 -2.299999999992381 0  25 -2.499999999993047 0  25 -2.699999999993714 0  25 -2.899999999994227 0  25 -3.099999999994698 0  25 -3.299999999994673 0  25 -3.499999999995339 0  25 -3.699999999996004 0  25 -3.89999999999667 0  25 -4.099999999997335 0  25 -4.299999999998002 0  25 -4.499999999998668 0  25 -4.699999999999335 0  24.80000000000034 -4.9 0  24.60000000000068 -4.9 0  24.40000000000101 -4.9 0  24.20000000000135 -4.9 0  24.00000000000169 -4.9 0  23.80000000000203 -4.9 0  23.60000000000237 -4.9 0  23.40000000000271 -4.9 0  23.20000000000304 -4.9 0  23.00000000000338 -4.9 0  22.80000000000372 -4.9 0  22.60000000000406 -4.9 0  22.40000000000439 -4.9 0  22.20000000000473 -4.9 0  22.00000000000507 -4.9 0  21.80000000000541 -4.9 0  21.60000000000575 -4.9 0  21.40000000000608 -4.9 0  21.20000000000642 -4.9 0  21.00000000000676 -4.9 0  20.8000000000071 -4.9 0  20.60000000000744 -4.9 0  20.40000000000777 -4.9 0  20.20000000000811 -4.9 0  20.00000000000845 -4.9 0  19.80000000000879 -4.9 0  19.60000000000912 -4.9 0  19.40000000000946 -4.9 0  19.2000000000098 -4.9 0  19.00000000001039 -4.9 0  18.80000000001108 -4.9 0  18.60000000001231 -4.9 0  18.40000000001371 -4.9 0  18.2000000000154 -4.9 0  18.00000000001716 -4.9 0  17.80000000001892 -4.9 0  17.60000000002067 -4.9 0  17.40000000002243 -4.9 0  17.20000000002419 -4.9 0  17.00000000002595 -4.9 0  16.80000000002771 -4.9 0  16.60000000002947 -4.9 0  16.40000000003123 -4.9 0  16.20000000003299 -4.9 0  16.00000000003472 -4.9 0  15.80000000003612 -4.9 0  15.60000000003748 -4.9 0  15.40000000003853 -4.9 0  15.20000000003958 -4.9 0  15.00000000004063 -4.9 0  14.80000000004168 -4.9 0  14.60000000004273 -4.9 0  14.40000000004377 -4.9 0  14.20000000004482 -4.9 0  14.00000000004587 -4.9 0  13.80000000004692 -4.9 0  13.60000000004797 -4.9 0  13.40000000004902 -4.9 0  13.20000000005007 -4.9 0  13.00000000005111 -4.9 0  12.80000000005216 -4.9 0  12.60000000005321 -4.9 0  12.40000000005426 -4.9 0  12.20000000005531 -4.9 0  12.00000000005636 -4.9 0  11.80000000005741 -4.9 0  11.60000000005846 -4.9 0  11.4000000000595 -4.9 0  11.20000000006055 -4.9 0  11.0000000000616 -4.9 0  10.80000000006265 -4.9 0  10.6000000000637 -4.9 0  10.40000000006475 -4.9 0  10.2000000000658 -4.9 0  10.00000000006684 -4.9 0  9.800000000067891 -4.9 0  9.60000000006894 -4.9 0  9.400000000069989 -4.9 0  9.200000000070727 -4.9 0  9.00000000007142 -4.9 0  8.800000000071787 -4.9 0  8.600000000072125 -4.9 0  8.400000000072467 -4.9 0  8.200000000072805 -4.9 0  8.000000000073143 -4.9 
[...]
<PointData  Vectors="f_7"> 
<DataArray  type="Float64"  Name="f_7"  NumberOfComponents="3" format="ascii">1.7966152438742480e-04 4.2000000000000002e-04 0.0000000000000000e+00  -1.7982371802587976e-04 4.2000000000000002e-04 0.0000000000000000e+00  0.0000000000000000e+00 0.0000000000000000e+00 0.0000000000000000e+00  0.0000000000000000e+00 0.0000000000000000e+00 0.0000000000000000e+00  3.1895179070839576e-05 2.1047278428703247e-04 0.0000000000000000e+00  -3.1231678447362742e-05 2.0693629440411945e-04 0.0000000000000000e+00  1.7719634251194951e-04 4.2000000000000002e-04 0.0000000000000000e+00  1.7471308262741457e-04 4.2000000000000002e-04 0.0000000000000000e+00  1.7221456524745303e-04 4.2000000000000002e-04 0.0000000000000000e+00  1.6966373255332054e-04 4.2000000000000002e-04 0.0000000000000000e+00  1.6710144603522155e-04 4.2000000000000002e-04 0.0000000000000000e+00  1.6450134404094862e-04 4.2000000000000002e-04 0.0000000000000000e+00  1.6188602116285776e-04 4.2000000000000002e-04 0.0000000000000000e+00  1.5924030517745313e-04 4.2000000000000002e-04 0.0000000000000000e+00  1.5658862546727822e-04 4.2000000000000002e-04 0.0000000000000000e+00  1.5391168666294567e-04 4.2000000000000002e-04 0.0000000000000000e+00  1.5122140726838747e-04 4.2000000000000002e-04 0.0000000000000000e+00  1.4853119200498174e-04 4.2000000000000002e-04 0.0000000000000000e+00  1.4581165869506830e-04 4.2000000000000002e-04 0.0000000000000000e+00  1.4309571515986092e-04 4.2000000000000002e-04 0.0000000000000000e+00  1.4037806921682693e-04 4.2000000000000002e-04 0.0000000000000000e+00  1.3766095969019665e-04 4.2000000000000002e-04 0.0000000000000000e+00  1.3492540950257276e-04 4.2000000000000002e-04 0.0000000000000000e+00  1.3220061556849514e-04 4.2000000000000002e-04 0.0000000000000000e+00  1.2948472183652577e-04 4.2000000000000002e-04 0.0000000000000000e+00  1.2675987788206465e-04 4.2000000000000002e-04 0.0000000000000000e+00  1.2404620400555062e-04 4.2000000000000002e-04 0.0000000000000000e+00  1.2134121022578114e-04 4.2000000000000002e-04 0.0000000000000000e+00  1.1864940618349599e-04 4.2000000000000002e-04 0.0000000000000000e+00  1.1597225979253851e-04 4.2000000000000002e-04 0.0000000000000000e+00  1.1328931533752318e-04 4.2000000000000002e-04 0.0000000000000000e+00  1.1062513501250556e-04 4.2000000000000002e-04 0.0000000000000000e+00  1.0797813295753157e-04 4.2000000000000002e-04 0.0000000000000000e+00  1.0534217414847318e-04 4.2000000000000002e-04 0.0000000000000000e+00  1.0272113750385502e-04 4.2000000000000002e-04 0.0000000000000000e+00  1.0011663753172899e-04 4.2000000000000002e-04 0.0000000000000000e+00  9.7524361549297943e-05 4.2000000000000002e-04 0.0000000000000000e+00  9.4948433481495693e-05 4.2000000000000002e-04 0.0000000000000000e+00  9.2388821968368909e-05 4.2000000000000002e-04 0.0000000000000000e+00  8.9848116203760777e-05 4.2000000000000002e-04 0.0000000000000000e+00  8.7312244125558995e-05 4.2000000000000002e-04 0.0000000000000000e+00  8.4796745989583426e-05 4.2000000000000002e-04 0.0000000000000000e+00  8.2293797837924626e-05 4.2000000000000002e-04 0.0000000000000000e+00  7.9807429182614554e-05 4.2000000000000002e-04 0.0000000000000000e+00  7.7328845514218036e-05 4.2000000000000002e-04 0.0000000000000000e+00  7.4864441710131925e-05 4.2000000000000002e-04 0.0000000000000000e+00  7.2412785396843343e-05 4.2000000000000002e-04 0.0000000000000000e+00  6.9970873378163203e-05 4.2000000000000002e-04 0.0000000000000000e+00  6.7537538927981629e-05 4.2000000000000002e-04 0.0000000000000000e+00  6.5111910297555942e-05 4.2000000000000002e-04 0.0000000000000000e+00  6.2692266816718936e-05 4.2000000000000002e-04 0.0000000000000000e+00  6.0278569882249451e-05 4.2000000000000002e-04 0.0000000000000000e+00  5.7869585950702168e-05 4.2000000000000002e-04 0.0000000000000000e+00  5.5463299200712912e-05 4.2000000000000002e-04 0.0000000000000000e+00  5.3059136633192568e-05 4.2000000000000002e-04 0.0000000000000000e+00  5.0656721435085483e-05 4.2000000000000002e-04 0.0000000000000000e+00  4.8253569760767903e-05 4.2000000000000002e-04 0.0000000000000000e+00  4.5848528016777334e-05 4.2000000000000002e-04 0.0000000000000000e+00  4.3442887095837409e-05 4.2000000000000002e-04 0.0000000000000000e+00  4.1033448885847497e-05 4.2000000000000002e-04 0.0000000000000000e+00  3.8624870574395689e-05 4.2000000000000002e-04 0.0000000000000000e+00  3.6214228993668519e-05 4.2000000000000002e-04 0.0000000000000000e+00  3.3802584714615274e-05 4.2000000000000002e-04 0.0000000000000000e+00  3.1390982810598281e-05 4.2000000000000002e-04 0.0000000000000000e+00  2.8984041130347377e-05 4.2000000000000002e-04 0.0000000000000000e+00  2.6581126564862355e-05 4.2000000000000002e-04 0.0000000000000000e+00  2.4196557910657248e-05 4.2000000000000002e-04 0.0000000000000000e+00  2.1825229441103807e-05 4.2000000000000002e-04 0.0000000000000000e+00  1.9475267168481070e-05 4.2000000000000002e-04 0.0000000000000000e+00  1.7150379495762851e-05 4.2000000000000002e-04 0.0000000000000000e+00  1.4860921028360858e-05 4.2000000000000002e-04 0.0000000000000000e+00  1.2624520365466526e-05 4.2000000000000002e-04 0.0000000000000000e+00  1.0446024598942618e-05 4.2000000000000002e-04 0.0000000000000000e+00  8.3501879106395477e-06 4.2000000000000002e-04 0.0000000000000000e+00  6.3201834057002226e-06 4.2000000000000002e-04 0.0000000000000000e+00  4.3612680822208580e-06 4.2000000000000002e-04 0.0000000000000000e+00  2.5152529422017167e-06 4.2000000000000002e-04 0.0000000000000000e+00  8.0141788782163291e-07 4.2000000000000002e-04 0.0000000000000000e+00  -7.9355295143797863e-07 4.2000000000000002e-04 0.0000000000000000e+00  -2.2821628902021679e-06 4.2000000000000002e-04 0.0000000000000000e+00  -3.6047123387718504e-06 4.2000000000000002e-04 0.0000000000000000e+00  -4.8065864098079813e-06 4.2000000000000002e-04 0.0000000000000000e+00  -5.8588467194089537e-06 4.2000000000000002e-04 0.0000000000000000e+00  -6.7520480836285712e-06 4.2000000000000002e-04 0.0000000000000000e+00  -7.5084992956491557e-06 4.2000000000000002e-04 0.0000000000000000e+00  -8.1349807104644287e-06 4.2000000000000002e-04 0.0000000000000000e+00  -8.6243065446296959e-06 4.2000000000000002e-04 0.0000000000000000e+00  -8.9823591836587100e-06 4.2000000000000002e-04 0.0000000000000000e+00  -9.2165485628745221e-06 4.2000000000000002e-04 0.0000000000000000e+00  -9.3397207263556799e-06 4.2000000000000002e-04 0.0000000000000000e+00  -9.3758761528873316e-06 4.2000000000000002e-04 0.0000000000000000e+00  -9.3301132681980898e-06 4.2000000000000002e-04 0.0000000000000000e+00  -9.1969598501888291e-06 4.2000000000000002e-04 0.0000000000000000e+00  -8.9920434777244737e-06 4.2000000000000002e-04 0.0000000000000000e+00  -8.7436428891904110e-06 4.2000000000000002e-04 0.0000000000000000e+00  -8.4508217314093378e-06 4.2000000000000002e-04 0.0000000000000000e+00  -8.1229768588448752e-06 4.2000000000000002e-04 0.0000000000000000e+00  -7.7570580364128714e-06 4.2000000000000002e-04 0.0000000000000000e+00  -7.3762135469653198e-06 4.2000000000000002e-04 0.0000000000000000e+00  -6.9824271383457676e-06 4.2000000000000002e-04 0.0000000000000000e+00  -6.5842849637641681e-06 4.2000000000000002e-04 0.0000000000000000e+00  -6.1782912405518481e-06 4.2000000000000002e-04 0.0000000000000000e+00  -5.7787198308571478e-06 4.2000000000000002e-04 0.0000000000000000e+00  -5.3870806525910886e-06 4.2000000000000002e-04 0.0000000000000000e+00  -5.0050539695348326e-06 4.2000000000000002e-04 0.0000000000000000e+00  -4.6358639349904481e-06 4.2000000000000002e-04 0.0000000000000000e+00  -4.2827662548010404e-06 4.2000000000000002e-04 0.0000000000000000e+00  -3.9481776011722629e-06 4.2000000000000002e-04 0.0000000000000000e+00  -3.6273516054834054e-06 4.2000000000000002e-04 0.0000000000000000e+00  -3.3276498182371093e-06 4.2000000000000002e-04 0.0000000000000000e+00  -3.0482283942834941e-06 4.2000000000000002e-04 0.0000000000000000e+00  -2.7903237980848108e-06 4.2000000000000002e-04 0.0000000000000000e+00  -2.5525297074431846e-06 4.2000000000000002e-04 0.0000000000000000e+00  -2.3339424637517398e-06 4.2000000000000002e-04 0.0000000000000000e+00  -2.1339424928875537e-06 4.2000000000000002e-04 0.0000000000000000e+00  -1.9536910918173326e-06 4.2000000000000002e-04 0.0000000000000000e+00  -1.7909995272657419e-06 4.2000000000000002e-04 0.0000000000000000e+00  -1.6448098728450917e-06 4.2000000000000002e-04 0.0000000000000000e+00  -1.5122970469501427e-06 4.2000000000000002e-04 0.0000000000000000e+00  -1.3945950339164937e-06 4.2000000000000002e-04 0.0000000000000000e+00  -1.2880950568952302e-06 4.2000000000000002e-04 0.0000000000000000e+00  -1.1933754153404415e-06 4.2000000000000002e-04 0.0000000000000000e+00  -1.1071122072168556e-06 4.2000000000000002e-04 0.0000000000000000e+00  -1.0290938138592132e-06 4.2000000000000002e-04 0.0000000000000000e+00  -9.5729801466629467e-07 4.2000000000000002e-04 0.0000000000000000e+00  -8.9011658883689745e-07 4.2000000000000002e-04 0.0000000000000000e+00  -8.2636622076323450e-07 4.2000000000000002e-04 0.0000000000000000e+00  -7.6446105761886951e-07 4.2000000000000002e-04 0.0000000000000000e+00  -7.0233339620153534e-07 4.2000000000000002e-04 0.0000000000000000e+00  -6.3933311539765848e-07 4.2000000000000002e-04 0.0000000000000000e+00  -5.7414578891244624e-07 4.2000000000000002e-04 0.0000000000000000e+00  -5.0567398171277160e-07 4.2000000000000002e-04 0.0000000000000000e+00  -4.3119598402743904e-07 4.2000000000000002e-04 0.0000000000000000e+00  -3.5152445835279725e-07 4.2000000000000002e-04 0.0000000000000000e+00  -2.6510534561055154e-07 4.2000000000000002e-04 0.0000000000000000e+00  -1.6962857361775535e-07 4.2000000000000002e-04 0.0000000000000000e+00  -6.5160169220213929e-08 4.2000000000000002e-04 0.0000000000000000e+00  4.9593171979337460e-08 4.2000000000000002e-04 0.0000000000000000e+00  1.7606101451048325e-07 4.2000000000000002e-04 0.0000000000000000e+00  3.1345313918508829e-07 4.2000000000000002e-04 0.0000000000000000e+00  4.6266256610470850e-07 4.2000000000000002e-04 0.0000000000000000e+00  6.2433135987763618e-07 4.2000000000000002e-04 0.0000000000000000e+00  7.9961904417821667e-07 4.2000000000000002e-04 0.0000000000000000e+00  9.8834354894987516e-07 4.2000000000000002e-04 0.0000000000000000e+00  1.1910968741133159e-06 4.2000000000000002e-04 0.0000000000000000e+00  1.4085469267791552e-06 4.2000000000000002e-04 0.0000000000000000e+00  1.6402712541994122e-06 4.2000000000000002e-04 0.0000000000000000e+00  1.8881787765414913e-06 4.2000000000000002e-04 0.0000000000000000e+00  2.1515431760234319e-06 4.2000000000000002e-04 0.0000000000000000e+00  2.4289343777857546e-06 4.2000000000000002e-04 0.0000000000000000e+00  2.7235054174789030e-06 4.2000000000000002e-04 0.0000000000000000e+00  3.0338782948752435e-06 4.2000000000000002e-04 0.0000000000000000e+00  3.3606711127082818e-06 4.2000000000000002e-04 0.0000000000000000e+00  3.7032040993528757e-06 4.2000000000000002e-04 0.0000000000000000e+00  4.0595270680166707e-06 4.2000000000000002e-04 0.0000000000000000e+00  4.4364280887043746e-06 4.2000000000000002e-04 0.0000000000000000e+00  4.8183442699014231e-06 4.2000000000000002e-04 0.0000000000000000e+00  5.2133284833256518e-06 4.2000000000000002e-04 0.0000000000000000e+00  5.6180698392581418e-06 4.2000000000000002e-04 0.0000000000000000e+00  6.0300727931699131e-06 4.2000000000000002e-04 0.0000000000000000e+00  6.4392197474971430e-06 4.2000000000000002e-04 0.0000000000000000e+00  6.8475411057280820e-06 4.2000000000000002e-04 0.0000000000000000e+00  7.2469189580333693e-06 4.2000000000000002e-04 0.0000000000000000e+00  7.6331321441658977e-06 4.2000000000000002e-04 0.0000000000000000e+00  8.0017118071003837e-06 4.2000000000000002e-04 0.0000000000000000e+00  8.3316608615351567e-06 4.2000000000000002e-04 0.0000000000000000e+00  8.6242239262625786e-06 4.2000000000000002e-04 0.0000000000000000e+00  8.8615480624733447e-06 4.2000000000000002e-04 0.0000000000000000e+00  9.0601205568379514e-06 4.2000000000000002e-04 0.0000000000000000e+00  9.1821570640195301e-06 4.2000000000000002e-04 0.0000000000000000e+00  9.2206169283396872e-06 4.2000000000000002e-04 0.0000000000000000e+00  9.1815329283064490e-06 4.2000000000000002e-04 0.0000000000000000e+00  9.0278708919593224e-06 4.2000000000000002e-04 0.0000000000000000e+00  8.7963176322356467e-06 4.2000000000000002e-04 0.0000000000000000e+00  8.4411763015203824e-06 4.2000000000000002e-04 0.0000000000000000e+00  7.9381224326670549e-06 4.2000000000000002e-04 0.0000000000000000e+00  7.2931331349975988e-06 4.2000000000000002e-04 0.0000000000000000e+00  6.5217906002801440e-06 4.2000000000000002e-04 0.0000000000000000e+00  5.5986776922350561e-06 4.2000000000000002e-04 0.0000000000000000e+00  4.5246452945767007e-06 4.2000000000000002e-04 0.0000000000000000e+00  3.3132464479806350e-06 4.2000000000000002e-04 0.0000000000000000e+00  1.9513998209722221e-06 4.2000000000000002e-04 0.0000000000000000e+00  5.0147138665676801e-07 4.2000000000000002e-04 0.0000000000000000e+00  -1.1204602943113192e-06 4.2000000000000002e-04 0.0000000000000000e+00  -2.8574172334255905e-06 4.2000000000000002e-04 0.0000000000000000e+00  -4.7026845831140170e-06 4.2000000000000002e-04 0.0000000000000000e+00  -6.6521847642639183e-06 4.2000000000000002e-04 0.0000000000000000e+00  -8.6804310054550351e-06 4.2000000000000002e-04 0.0000000000000000e+00  -1.0800271696959066e-05 4.2000000000000002e-04 0.0000000000000000e+00  -1.2974354553534713e-05 4.2000000000000002e-04 0.0000000000000000e+00  -1.5216313085616932e-05 4.2000000000000002e-04 0.0000000000000000e+00  -1.7498204678099580e-05 4.2000000000000002e-04 0.0000000000000000e+00  -1.9815062644597283e-05 4.2000000000000002e-04 0.0000000000000000e+00  -2.2159263742878021e-05 4.2000000000000002e-04 0.0000000000000000e+00  -2.4531216132994422e-05 4.2000000000000002e-04 0.0000000000000000e+00  -2.6913754909433835e-05 4.2000000000000002e-04 0.0000000000000000e+00  -2.9309366537485273e-05 4.2000000000000002e-04 0.0000000000000000e+00  -3.1710180837378586e-05 4.2000000000000002e-04 0.0000000000000000e+00  -3.4114559757532622e-05 4.2000000000000002e-04 0.0000000000000000e+00  -3.6520283612314958e-05 4.2000000000000002e-04 0.0000000000000000e+00  -3.8925456154829998e-05 4.2000000000000002e-04 0.0000000000000000e+00  -4.1329252066882392e-05 4.2000000000000002e-04 0.0000000000000000e+00  -4.3730685387546844e-05 4.2000000000000002e-04 0.0000000000000000e+00  -4.6130849407443803e-05 4.2000000000000002e-04 0.0000000000000000e+00  -4.8529688053878042e-05 4.2000000000000002e-04 0.0000000000000000e+00  -5.0928182031309965e-05 4.2000000000000002e-04 0.0000000000000000e+00  -5.3325312375836801e-05 4.2000000000000002e-04 0.0000000000000000e+00  -5.5723037093989550e-05 4.2000000000000002e-04 0.0000000000000000e+00  -5.8123526142229034e-05 4.2000000000000002e-04 0.0000000000000000e+00  -6.0527037465281249e-05 4.2000000000000002e-04 0.0000000000000000e+00  -6.2935826956214287e-05 4.2000000000000002e-04 0.0000000000000000e+00  -6.5350330282721003e-05 4.2000000000000002e-04 0.0000000000000000e+00  -6.7770754135841173e-05 4.2000000000000002e-04 0.0000000000000000e+00  -7.0199948447250814e-05 4.2000000000000002e-04 0.0000000000000000e+00  -7.2639125188549611e-05 4.2000000000000002e-04 0.0000000000000000e+00  -7.5089896857609729e-05 4.2000000000000002e-04 0.0000000000000000e+00  -7.7551674790548041e-05 4.2000000000000002e-04 0.0000000000000000e+00  -8.0020596949149735e-05 4.2000000000000002e-04 0.0000000000000000e+00  -8.2505607799677542e-05 4.2000000000000002e-04 0.0000000000000000e+00  -8.5005086383967189e-05 4.2000000000000002e-04 0.0000000000000000e+00  -8.7521760856599720e-05 4.2000000000000002e-04 0.0000000000000000e+00  -9.0044485857148507e-05 4.2000000000000002e-04 0.0000000000000000e+00  -9.2587283012181967e-05 4.2000000000000002e-04 0.0000000000000000e+00  -9.5148706950945840e-05 4.2000000000000002e-04 0.0000000000000000e+00  -9.7718791846813734e-05 4.2000000000000002e-04 0.0000000000000000e+00  -1.0030728520308611e-04 4.2000000000000002e-04 0.0000000000000000e+00  -1.0291176680333208e-04 4.2000000000000002e-04 0.0000000000000000e+00  -1.0553289515775530e-04 4.2000000000000002e-04 0.0000000000000000e+00  -1.0816682582423036e-04 4.2000000000000002e-04 0.0000000000000000e+00  -1.1081191845874640e-04 4.2000000000000002e-04 0.0000000000000000e+00  -1.1347106541643313e-04 4.2000000000000002e-04 0.0000000000000000e+00  -1.1614535456265320e-04 4.2000000000000002e-04 0.0000000000000000e+00  -1.1882936523644774e-04 4.2000000000000002e-04 0.0000000000000000e+00  -1.2152276566271959e-04 4.2000000000000002e-04 0.0000000000000000e+00  -1.2422555984298862e-04 4.2000000000000002e-04 0.0000000000000000e+00  -1.2693799470998933e-04 4.2000000000000002e-04 0.0000000000000000e+00  -1.2965295015089184e-04 4.2000000000000002e-04 0.0000000000000000e+00  -1.3237646537801425e-04 4.2000000000000002e-04 0.0000000000000000e+00  -1.3509697025701665e-04 4.2000000000000002e-04 0.0000000000000000e+00  -1.3782325400113130e-04 4.2000000000000002e-04 0.0000000000000000e+00  -1.4054948968067062e-04 4.2000000000000002e-04 0.0000000000000000e+00  -1.4326827377477374e-04 4.2000000000000002e-04 0.0000000000000000e+00  -1.4598344770163363e-04 4.2000000000000002e-04 0.0000000000000000e+00  -1.4869265527706922e-04 4.2000000000000002e-04 0.0000000000000000e+00  -1.5139152253723439e-04 4.2000000000000002e-04 0.0000000000000000e+00  -1.5407602026321727e-04 4.2000000000000002e-04 0.0000000000000000e+00  -1.5675492369344473e-04 4.2000000000000002e-04 0.0000000000000000e+00  -1.5941299078821991e-04 4.2000000000000002e-04 0.0000000000000000e+00  -1.6205167402152487e-04 4.2000000000000002e-04 0.0000000000000000e+00  -1.6466924040681475e-04 4.2000000000000002e-04 0.0000000000000000e+00  -1.6726016279722155e-04 4.2000000000000002e-04 0.0000000000000000e+00  -1.6982834113808820e-04 4.2000000000000002e-04 0.0000000000000000e+00  -1.7237354522094459e-04 4.2000000000000002e-04 0.0000000000000000e+00  -1.7487561197080694e-04 4.2000000000000002e-04 0.0000000000000000e+00  -1.7735802500743039e-04 4.2000000000000002e-04 0.0000000000000000e+00  -1.7976464847075006e-04 4.1269957202931643e-04 0.0000000000000000e+00  -1.7960070075885172e-04 4.0539701065029715e-04 0.0000000000000000e+00  -1.7936940681373536e-04 3.9809206509535208e-04 0.0000000000000000e+00  -1.7901183547800885e-04 3.9078426859868169e-04 0.0000000000000000e+00  -1.7856463986074287e-04 3.8348558629720000e-04 0.0000000000000000e+00  -1.7799577060673973e-04 3.7616372362117968e-04 0.0000000000000000e+00  -1.7733836208095477e-04 3.6885566475512824e-04 0.0000000000000000e+00  -1.7658178436398507e-04 3.6152836580701772e-04 0.0000000000000000e+00  -1.7571135567326796e-04 3.5419793442035126e-04 0.0000000000000000e+00  -1.7473379114757263e-04 3.4687441811906774e-04 0.0000000000000000e+00  -1.7365260984322260e-04 3.3952510747859186e-04 0.0000000000000000e+00  -1.7246054421576499e-04 3.3217420048552057e-04 0.0000000000000000e+00  -1.7116368633660170e-04 3.2480404499540496e-04 0.0000000000000000e+00  -1.6974743721701608e-04 3.1744364368340534e-04 0.0000000000000000e+00  -1.6822551284307834e-04 3.1004591745940939e-04 0.0000000000000000e+00  -1.6658327750412755e-04 3.0262881273603775e-04 0.0000000000000000e+00  -1.6482080724798906e-04 2.9521494208134498e-04 0.0000000000000000e+00  -1.6294123678696620e-04 2.8776366199786312e-04 0.0000000000000000e+00  -1.6093289201396340e-04 2.8031199430731280e-04 0.0000000000000000e+00  -1.5879965089318090e-04 2.7282902985132610e-04 0.0000000000000000e+00  -1.5654439247683225e-04 2.6529900322635086e-04 0.0000000000000000e+00  -1.5414670268029849e-04 2.5777563813954589e-04 0.0000000000000000e+00  -1.5162007909253795e-04 2.5019397556310606e-04 0.0000000000000000e+00  -1.4894108791143593e-04 2.4259684084266446e-04 0.0000000000000000e+00  -1.4613435566547948e-04 2.3494428529166378e-04 0.0000000000000000e+00  -1.4316203814287307e-04 2.2727846976647006e-04 0.0000000000000000e+00  -1.4005601803109523e-04 2.1952824732806439e-04 0.0000000000000000