<?xml version="1.0"?>
<VTKFile type="UnstructuredGrid"  version="0.1"  >
<UnstructuredGrid>
<Piece  NumberOfPoints="16512" NumberOfCells="32424">
<Points>
<DataArray  type="Float64"  NumberOfComponents="3"  format="ascii">-25 4.9 0  25 4.9 0  25 -4.9 0  -25 -4.9 0  -10 0 0  10 0 0  -24.80000000000034 4.9 0  -24.60000000000068 4.9 0  -24.40000000000101 4.9 0  -24.20000000000135 4.9 0  -24.00000000000169 4.9 0  -23.80000000000203 4.9 0  -23.60000000000237 4.9 0  -23.40000000000271 4.9 0  -23.20000000000304 4.9 0  -23.00000000000338 4.9 0  -22.80000000000372 4.9 0  -22.60000000000406 4.9 0  -22.40000000000439 4.9 0  -22.20000000000473 4.9 0  -22.00000000000507 4.9 0  -21.80000000000541 4.9 0  -21.60000000000575 4.9 0  -21.40000000000608 4.9 0  -21.20000000000642 4.9 0  -21.00000000000676 4.9 0  -20.8000000000071 4.9 0  -20.60000000000744 4.9 0  -20.40000000000777 4.9 0  -20.20000000000811 4.9 0  -20.00000000000845 4.9 0  -19.80000000000879 4.9 0  -19.60000000000912 4.9 0  -19.40000000000946 4.9 0  -19.2000000000098 4.9 0  -19.00000000001039 4.9 0  -18.80000000001108 4.9 0  -18.60000000001231 4.9 0  -18.40000000001371 4.9 0  -18.2000000000154 4.9 0  -18.00000000001716 4.9 0  -17.80000000001892 4.9 0  -17.60000000002067 4.9 0  -17.40000000002243 4.9 0  -17.20000000002419 4.9 0  -17.00000000002595 4.9 0  -16.80000000002771 4.9 0  -16.60000000002947 4.9 0  -16.40000000003123 4.9 0  -16.20000000003299 4.9 0  -16.00000000003472 4.9 0  -15.80000000003612 4.9 0  -15.60000000003748 4.9 0  -15.40000000003853 4.9 0  -15.20000000003958 4.9 0  -15.00000000004063 4.9 0  -14.80000000004168 4.9 0  -14.60000000004273 4.9 0  -14.40000000004377 4.9 0  -14.20000000004482 4.9 0  -14.00000000004587 4.9 0  -13.80000000004692 4.9 0  -13.60000000004797 4.9 0  -13.40000000004902 4.9 0  -13.20000000005007 4.9 0  -13.00000000005111 4.9 0  -12.80000000005216 4.9 0  -12.60000000005321 4.9 0  -12.40000000005426 4.9 0  -12.20000000005531 4.9 0  -12.00000000005636 4.9 0  -11.80000000005741 4.9 0  -11.60000000005846 4.9 0  -11.4000000000595 4.9 0  -11.20000000006055 4.9 0  -11.0000000000616 4.9 0  -10.80000000006265 4.9 0  -10.6000000000637 4.9 0  -10.40000000006475 4.9 0  -10.2000000000658 4.9 0  -10.00000000006684 4.9 0  -9.800000000067891 4.9 0  -9.60000000006894 4.9 0  -9.400000000069989 4.9 0  -9.200000000070727 4.9 0  -9.00000000007142 4.9 0  -8.800000000071787 4.9 0  -8.600000000072125 4.9 0  -8.400000000072467 4.9 0  -8.200000000072805 4.9 0  -8.000000000073143 4.9 0  -7.800000000073481 4.9 0  -7.60000000007382 4.9 0  -7.400000000074154 4.9 0  -7.200000000074493 4.9 0  -7.000000000074831 4.9 0  -6.800000000075173 4.9 0  -6.600000000075511 4.9 0  -6.400000000075849 4.9 0  -6.200000000076187 4.9 0  -6.000000000076525 4.9 0  -5.800000000076867 4.9 0  -5.600000000077205 4.9 0  -5.400000000077544 4.9 0  -5.200000000077882 4.9 0  -5.00000000007822 4.9 0  -4.800000000078558 4.9 0  -4.600000000078897 4.9 0  -4.400000000079235 4.9 0  -4.200000000079573 4.9 0  -4.000000000079908 4.9 0  -3.800000000080246 4.9 0  -3.600000000080588 4.9 0  -3.400000000080926 4.9 0  -3.200000000081264 4.9 0  -3.000000000081606 4.9 0  -2.800000000081944 4.9 0  -2.600000000082282 4.9 0  -2.40000000008262 4.9 0  -2.200000000082959 4.9 0  -2.000000000083297 4.9 0  -1.800000000083635 4.9 0  -1.600000000083973 4.9 0  -1.400000000084312 4.9 0  -1.20000000008465 4.9 0  -1.000000000084988 4.9 0  -0.8000000000853262 4.9 0  -0.6000000000856645 4.9 0  -0.4000000000860027 4.9 0  -0.2000000000863409 4.9 0  -8.667910833537462e-11 4.9 0  0.1999999999129827 4.9 0  0.3999999999126409 4.9 0  0.5999999999123027 4.9 0  0.7999999999119716 4.9 0  0.9999999999116262 4.9 0  1.199999999911295 4.9 0  1.39999999991095 4.9 0  1.599999999910619 4.9 0  1.799999999910273 4.9 0  1.999999999909939 4.9 0  2.199999999909597 4.9 0  2.399999999909262 4.9 0  2.599999999908921 4.9 0  2.799999999908582 4.9 0  2.999999999908244 4.9 0  3.199999999907906 4.9 0  3.399999999907564 4.9 0  3.599999999907226 4.9 0  3.799999999906888 4.9 0  3.999999999906549 4.9 0  4.199999999906218 4.9 0  4.399999999905873 4.9 0  4.599999999905542 4.9 0  4.799999999905197 4.9 0  4.999999999904865 4.9 0  5.19999999990452 4.9 0  5.399999999904182 4.9 0  5.599999999903844 4.9 0  5.799999999903505 4.9 0  5.999999999903167 4.9 0  6.199999999902829 4.9 0  6.399999999902491 4.9 0  6.599999999902153 4.9 0  6.799999999902379 4.9 0  6.999999999902752 4.9 0  7.199999999903724 4.9 0  7.399999999904807 4.9 0  7.59999999990589 4.9 0  7.799999999906966 4.9 0  7.999999999908056 4.9 0  8.199999999909132 4.9 0  8.399999999910214 4.9 0  8.59999999991129 4.9 0  8.79999999991238 4.9 0  8.999999999913456 4.9 0  9.199999999914539 4.9 0  9.399999999915622 4.9 0  9.599999999916704 4.9 0  9.79999999991778 4.9 0  9.99999999991887 4.9 0  10.19999999991995 4.9 0  10.39999999992103 4.9 0  10.59999999992212 4.9 0  10.79999999992319 4.9 0  10.99999999992428 4.9 0  11.19999999992536 4.9 0  11.39999999992644 4.9 0  11.59999999992752 4.9 0  11.7999999999286 4.9 0  11.99999999992968 4.9 0  12.19999999993077 4.9 0  12.39999999993184 4.9 0  12.59999999993293 4.9 0  12.79999999993401 4.9 0  12.99999999993509 4.9 0  13.19999999993617 4.9 0  13.39999999993726 4.9 0  13.59999999993834 4.9 0  13.79999999993942 4.9 0  13.99999999994051 4.9 0  14.19999999994158 4.9 0  14.39999999994266 4.9 0  14.59999999994375 4.9 0  14.79999999994483 4.9 0  14.99999999994591 4.9 0  15.199999999947 4.9 0  15.39999999994807 4.9 0  15.59999999994915 4.9 0  15.79999999995024 4.9 0  15.99999999995132 4.9 0  16.1999999999524 4.9 0  16.39999999995349 4.9 0  16.59999999995456 4.9 0  16.79999999995565 4.9 0  16.99999999995674 4.9 0  17.19999999995781 4.9 0  17.39999999995889 4.9 0  17.59999999995997 4.9 0  17.79999999996106 4.9 0  17.99999999996214 4.9 0  18.19999999996322 4.9 0  18.3999999999643 4.9 0  18.59999999996538 4.9 0  18.79999999996646 4.9 0  18.99999999996755 4.9 0  19.19999999996863 4.9 0  19.39999999996971 4.9 0  19.59999999997079 4.9 0  19.79999999997187 4.9 0  19.99999999997296 4.9 0  20.19999999997404 4.9 0  20.39999999997512 4.9 0  20.5999999999762 4.9 0  20.79999999997728 4.9 0  20.99999999997836 4.9 0  21.19999999997945 4.9 0  21.39999999998052 4.9 0  21.59999999998161 4.9 0  21.79999999998269 4.9 0  21.99999999998377 4.9 0  22.19999999998485 4.9 0  22.39999999998594 4.9 0  22.59999999998701 4.9 0  22.7999999999881 4.9 0  22.99999999998919 4.9 0  23.19999999999026 4.9 0  23.39999999999135 4.9 0  23.59999999999243 4.9 0  23.79999999999351 4.9 0  23.99999999999459 4.9 0  24.19999999999568 4.9 0  24.39999999999675 4.9 0  24.59999999999783 4.9 0  24.79999999999892 4.9 0  25 4.700000000000415 0  25 4.500000000000868 0  25 4.300000000001562 0  25 4.100000000001831 0  25 3.900000000002072 0  25 3.700000000002459 0  25 3.500000000003038 0  25 3.300000000003653 0  25 3.100000000004294 0  25 2.900000000004838 0  25 2.700000000005293 0  25 2.500000000005957 0  25 2.300000000006508 0  25 2.100000000007153 0  25 1.900000000007722 0  25 1.700000000008417 0  25 1.500000000008938 0  25 1.30000000000963 0  25 1.100000000010154 0  25 0.9000000000108268 0  25 0.7000000000114559 0  25 0.5000000000119762 0  25 0.3000000000126564 0  25 0.1000000000131926 0  25 -0.09999999998679243 0  25 -0.2999999999874587 0  25 -0.4999999999878586 0  25 -0.6999999999884441 0  25 -0.899999999988804 0  25 -1.099999999989427 0  25 -1.299999999989749 0  25 -1.499999999990411 0  25 -1.69999999999073 0  25 -1.899999999991396 0  25 -2.099999999991715 0  25 -2.299999999992381 0  25 -2.499999999993047 0  25 -2.699999999993714 0  25 -2.899999999994227 0  25 -3.099999999994698 0  25 -3.299999999994673 0  25 -3.499999999995339 0  25 -3.699999999996004 0  25 -3.89999999999667 0  25 -4.099999999997335 0  25 -4.299999999998002 0  25 -4.499999999998668 0  25 -4.699999999999335 0  24.80000000000034 -4.9 0  24.60000000000068 -4.9 0  24.40000000000101 -4.9 0  24.20000000000135 -4.9 0  24.00000000000169 -4.9 0  23.80000000000203 -4.9 0  23.60000000000237 -4.9 0  23.40000000000271 -4.9 0  23.20000000000304 -4.9 0  23.00000000000338 -4.9 0  22.80000000000372 -4.9 0  22.60000000000406 -4.9 0  22.40000000000439 -4.9 0  22.20000000000473 -4.9 0  22.00000000000507 -4.9 0  21.80000000000541 -4.9 0  21.60000000000575 -4.9 0  21.40000000000608 -4.9 0  21.20000000000642 -4.9 0  21.00000000000676 -4.9 0  20.8000000000071 -4.9 0  20.60000000000744 -4.9 0  20.40000000000777 -4.9 0  20.20000000000811 -4.9 0  20.00000000000845 -4.9 0  19.80000000000879 -4.9 0  19.60000000000912 -4.9 0  19.40000000000946 -4.9 0  19.2000000000098 -4.9 0  19.00000000001039 -4.9 0  18.80000000001108 -4.9 0  18.60000000001231 -4.9 0  18.40000000001371 -4.9 0  18.2000000000154 -4.9 0  18.00000000001716 -4.9 0  17.80000000001892 -4.9 0  17.60000000002067 -4.9 0  17.40000000002243 -4.9 0  17.20000000002419 -4.9 0  17.00000000002595 -4.9 0  16.80000000002771 -4.9 0  16.60000000002947 -4.9 0  16.40000000003123 -4.9 0  16.20000000003299 -4.9 0  16.00000000003472 -4.9 0  15.80000000003612 -4.9 0  15.60000000003748 -4.9 0  15.40000000003853 -4.9 0  15.20000000003958 -4.9 0  15.00000000004063 -4.9 0  14.80000000004168 -4.9 0  14.60000000004273 -4.9 0  14.40000000004377 -4.9 0  14.20000000004482 -4.9 0  14.00000000004587 -4.9 0  13.80000000004692 -4.9 0  13.60000000004797 -4.9 0  13.40000000004902 -4.9 0  13.20000000005007 -4.9 0  13.00000000005111 -4.9 0  12.80000000005216 -4.9 0  12.60000000005321 -4.9 0  12.40000000005426 -4.9 0  12.20000000005531 -4.9 0  12.00000000005636 -4.9 0  11.80000000005741 -4.9 0  11.60000000005846 -4.9 0  11.4000000000595 -4.9 0  11.20000000006055 -4.9 0  11.0000000000616 -4.9 0  10.80000000006265 -4.9 0  10.6000000000637 -4.9 0  10.40000000006475 -4.9 0  10.2000000000658 -4.9 0  10.00000000006684 -4.9 0  9.800000000067891 -4.9 0  9.60000000006894 -4.9 0  9.400000000069989 -4.9 0  9.200000000070727 -4.9 0  9.00000000007142 -4.9 0  8.800000000071787 -4.9 0  8.600000000072125 -4.9 0  8.400000000072467 -4.9 0  8.200000000072805 -4.9 0  8.000000000073143 -4.9 
[...]
<PointData  Vectors="f_7"> 
<DataArray  type="Float64"  Name="f_7"  NumberOfComponents="3" format="ascii">1.7347569056489872e-04 4.0500000000000003e-04 0.0000000000000000e+00  -1.7363193454462495e-04 4.0500000000000003e-04 0.0000000000000000e+00  0.0000000000000000e+00 0.0000000000000000e+00 0.0000000000000000e+00  0.0000000000000000e+00 0.0000000000000000e+00 0.0000000000000000e+00  3.0877177428846730e-05 2.0292241669068987e-04 0.0000000000000000e+00  -3.0236465160576242e-05 1.9952331535325025e-04 0.0000000000000000e+00  1.7109954235854869e-04 4.0500000000000003e-04 0.0000000000000000e+00  1.6870592785863840e-04 4.0500000000000003e-04 0.0000000000000000e+00  1.6629757514037137e-04 4.0500000000000003e-04 0.0000000000000000e+00  1.6383867503272815e-04 4.0500000000000003e-04 0.0000000000000000e+00  1.6136873129287508e-04 4.0500000000000003e-04 0.0000000000000000e+00  1.5886226530660488e-04 4.0500000000000003e-04 0.0000000000000000e+00  1.5634112586488796e-04 4.0500000000000003e-04 0.0000000000000000e+00  1.5379065624785104e-04 4.0500000000000003e-04 0.0000000000000000e+00  1.5123446053556829e-04 4.0500000000000003e-04 0.0000000000000000e+00  1.4865390543272245e-04 4.0500000000000003e-04 0.0000000000000000e+00  1.4606050997605419e-04 4.0500000000000003e-04 0.0000000000000000e+00  1.4346722442921457e-04 4.0500000000000003e-04 0.0000000000000000e+00  1.4084566805728688e-04 4.0500000000000003e-04 0.0000000000000000e+00  1.3822763664955143e-04 4.0500000000000003e-04 0.0000000000000000e+00  1.3560801563832189e-04 4.0500000000000003e-04 0.0000000000000000e+00  1.3298897612605169e-04 4.0500000000000003e-04 0.0000000000000000e+00  1.3035218446386351e-04 4.0500000000000003e-04 0.0000000000000000e+00  1.2772585944629240e-04 4.0500000000000003e-04 0.0000000000000000e+00  1.2510819276474283e-04 4.0500000000000003e-04 0.0000000000000000e+00  1.2248195642801043e-04 4.0500000000000003e-04 0.0000000000000000e+00  1.1986659239576732e-04 4.0500000000000003e-04 0.0000000000000000e+00  1.1725969132238495e-04 4.0500000000000003e-04 0.0000000000000000e+00  1.1466561817538228e-04 4.0500000000000003e-04 0.0000000000000000e+00  1.1208578749394638e-04 4.0500000000000003e-04 0.0000000000000000e+00  1.0950043311198792e-04 4.0500000000000003e-04 0.0000000000000000e+00  1.0693331049026986e-04 4.0500000000000003e-04 0.0000000000000000e+00  1.0438287858112929e-04 4.0500000000000003e-04 0.0000000000000000e+00  1.0184321337491062e-04 4.0500000000000003e-04 0.0000000000000000e+00  9.9318066705105740e-05 4.0500000000000003e-04 0.0000000000000000e+00  9.6809009138433270e-05 4.0500000000000003e-04 0.0000000000000000e+00  9.4311876217009362e-05 4.0500000000000003e-04 0.0000000000000000e+00  9.1830660156006906e-05 4.0500000000000003e-04 0.0000000000000000e+00  8.9365323462900557e-05 4.0500000000000003e-04 0.0000000000000000e+00  8.6918395152878812e-05 4.0500000000000003e-04 0.0000000000000000e+00  8.4476249030864204e-05 4.0500000000000003e-04 0.0000000000000000e+00  8.2053950104735347e-05 4.0500000000000003e-04 0.0000000000000000e+00  7.9643927509144327e-05 4.0500000000000003e-04 0.0000000000000000e+00  7.7250099193532817e-05 4.0500000000000003e-04 0.0000000000000000e+00  7.4863936372297562e-05 4.0500000000000003e-04 0.0000000000000000e+00  7.2491659540252390e-05 4.0500000000000003e-04 0.0000000000000000e+00  7.0131893263994426e-05 4.0500000000000003e-04 0.0000000000000000e+00  6.7781741734322231e-05 4.0500000000000003e-04 0.0000000000000000e+00  6.5440087815470346e-05 4.0500000000000003e-04 0.0000000000000000e+00  6.3106093981630084e-05 4.0500000000000003e-04 0.0000000000000000e+00  6.0778111102999955e-05 4.0500000000000003e-04 0.0000000000000000e+00  5.8456120135618519e-05 4.0500000000000003e-04 0.0000000000000000e+00  5.6138922393820223e-05 4.0500000000000003e-04 0.0000000000000000e+00  5.3824613540037689e-05 4.0500000000000003e-04 0.0000000000000000e+00  5.1512650788395711e-05 4.0500000000000003e-04 0.0000000000000000e+00  4.9202635014629029e-05 4.0500000000000003e-04 0.0000000000000000e+00  4.6892216419351262e-05 4.0500000000000003e-04 0.0000000000000000e+00  4.4580253131139154e-05 4.0500000000000003e-04 0.0000000000000000e+00  4.2268025936478018e-05 4.0500000000000003e-04 0.0000000000000000e+00  3.9952528468340614e-05 4.0500000000000003e-04 0.0000000000000000e+00  3.7638044063995577e-05 4.0500000000000003e-04 0.0000000000000000e+00  3.5321912220066035e-05 4.0500000000000003e-04 0.0000000000000000e+00  3.3005107465535568e-05 4.0500000000000003e-04 0.0000000000000000e+00  3.0688665366070876e-05 4.0500000000000003e-04 0.0000000000000000e+00  2.8376967487927518e-05 4.0500000000000003e-04 0.0000000000000000e+00  2.6069462133196057e-05 4.0500000000000003e-04 0.0000000000000000e+00  2.3779745258110704e-05 4.0500000000000003e-04 0.0000000000000000e+00  2.1503013545803365e-05 4.0500000000000003e-04 0.0000000000000000e+00  1.9247025264770209e-05 4.0500000000000003e-04 0.0000000000000000e+00  1.7015337965230531e-05 4.0500000000000003e-04 0.0000000000000000e+00  1.4817908990913761e-05 4.0500000000000003e-04 0.0000000000000000e+00  1.2671447273700769e-05 4.0500000000000003e-04 0.0000000000000000e+00  1.0580705695640482e-05 4.0500000000000003e-04 0.0000000000000000e+00  8.5693385040000366e-06 4.0500000000000003e-04 0.0000000000000000e+00  6.6212499397296691e-06 4.0500000000000003e-04 0.0000000000000000e+00  4.7414446730637094e-06 4.0500000000000003e-04 0.0000000000000000e+00  2.9698942962177851e-06 4.0500000000000003e-04 0.0000000000000000e+00  1.3250121384957322e-06 4.0500000000000003e-04 0.0000000000000000e+00  -2.0596643581922358e-07 4.0500000000000003e-04 0.0000000000000000e+00  -1.6349990722944120e-06 4.0500000000000003e-04 0.0000000000000000e+00  -2.9051526243825589e-06 4.0500000000000003e-04 0.0000000000000000e+00  -4.0597628747597880e-06 4.0500000000000003e-04 0.0000000000000000e+00  -5.0712271796818652e-06 4.0500000000000003e-04 0.0000000000000000e+00  -5.9306272452409233e-06 4.0500000000000003e-04 0.0000000000000000e+00  -6.6593262815264334e-06 4.0500000000000003e-04 0.0000000000000000e+00  -7.2638614022008446e-06 4.0500000000000003e-04 0.0000000000000000e+00  -7.7374522616912106e-06 4.0500000000000003e-04 0.0000000000000000e+00  -8.0857900381014739e-06 4.0500000000000003e-04 0.0000000000000000e+00  -8.3160266696255175e-06 4.0500000000000003e-04 0.0000000000000000e+00  -8.4405137166709603e-06 4.0500000000000003e-04 0.0000000000000000e+00  -8.4821589503314476e-06 4.0500000000000003e-04 0.0000000000000000e+00  -8.4458992863131981e-06 4.0500000000000003e-04 0.0000000000000000e+00  -8.3266216190936435e-06 4.0500000000000003e-04 0.0000000000000000e+00  -8.1392957922549774e-06 4.0500000000000003e-04 0.0000000000000000e+00  -7.9108197325430605e-06 4.0500000000000003e-04 0.0000000000000000e+00  -7.6403553362262310e-06 4.0500000000000003e-04 0.0000000000000000e+00  -7.3369072931268280e-06 4.0500000000000003e-04 0.0000000000000000e+00  -6.9976266679619601e-06 4.0500000000000003e-04 0.0000000000000000e+00  -6.6444945824896135e-06 4.0500000000000003e-04 0.0000000000000000e+00  -6.2794239878739290e-06 4.0500000000000003e-04 0.0000000000000000e+00  -5.9105607297788069e-06 4.0500000000000003e-04 0.0000000000000000e+00  -5.5346805573866648e-06 4.0500000000000003e-04 0.0000000000000000e+00  -5.1651909040633514e-06 4.0500000000000003e-04 0.0000000000000000e+00  -4.8035714436369839e-06 4.0500000000000003e-04 0.0000000000000000e+00  -4.4514404326785848e-06 4.0500000000000003e-04 0.0000000000000000e+00  -4.1118081771727681e-06 4.0500000000000003e-04 0.0000000000000000e+00  -3.7877203219595249e-06 4.0500000000000003e-04 0.0000000000000000e+00  -3.4814601663619310e-06 4.0500000000000003e-04 0.0000000000000000e+00  -3.1885407238516731e-06 4.0500000000000003e-04 0.0000000000000000e+00  -2.9158419308193260e-06 4.0500000000000003e-04 0.0000000000000000e+00  -2.6625671059750380e-06 4.0500000000000003e-04 0.0000000000000000e+00  -2.4298676523351085e-06 4.0500000000000003e-04 0.0000000000000000e+00  -2.2163525282862698e-06 4.0500000000000003e-04 0.0000000000000000e+00  -2.0211703899108995e-06 4.0500000000000003e-04 0.0000000000000000e+00  -1.8436630897367290e-06 4.0500000000000003e-04 0.0000000000000000e+00  -1.6849228145940902e-06 4.0500000000000003e-04 0.0000000000000000e+00  -1.5428447120190848e-06 4.0500000000000003e-04 0.0000000000000000e+00  -1.4163955026581415e-06 4.0500000000000003e-04 0.0000000000000000e+00  -1.3028915404539638e-06 4.0500000000000003e-04 0.0000000000000000e+00  -1.2033702827183216e-06 4.0500000000000003e-04 0.0000000000000000e+00  -1.1144070775770482e-06 4.0500000000000003e-04 0.0000000000000000e+00  -1.0365304601124924e-06 4.0500000000000003e-04 0.0000000000000000e+00  -9.6659255787420723e-07 4.0500000000000003e-04 0.0000000000000000e+00  -9.0438017436287913e-07 4.0500000000000003e-04 0.0000000000000000e+00  -8.4798221660005735e-07 4.0500000000000003e-04 0.0000000000000000e+00  -7.9587551457775470e-07 4.0500000000000003e-04 0.0000000000000000e+00  -7.4694402832649408e-07 4.0500000000000003e-04 0.0000000000000000e+00  -6.9969268317784482e-07 4.0500000000000003e-04 0.0000000000000000e+00  -6.5216206603320964e-07 4.0500000000000003e-04 0.0000000000000000e+00  -6.0376524790828961e-07 4.0500000000000003e-04 0.0000000000000000e+00  -5.5325456181903288e-07 4.0500000000000003e-04 0.0000000000000000e+00  -4.9959952750446003e-07 4.0500000000000003e-04 0.0000000000000000e+00  -4.4023135197400165e-07 4.0500000000000003e-04 0.0000000000000000e+00  -3.7593396791879395e-07 4.0500000000000003e-04 0.0000000000000000e+00  -3.0524336840161934e-07 4.0500000000000003e-04 0.0000000000000000e+00  -2.2596874834360716e-07 4.0500000000000003e-04 0.0000000000000000e+00  -1.3818968565175034e-07 4.0500000000000003e-04 0.0000000000000000e+00  -4.0683803375043374e-08 4.0500000000000003e-04 0.0000000000000000e+00  6.7899242787035985e-08 4.0500000000000003e-04 0.0000000000000000e+00  1.8680719623918004e-07 4.0500000000000003e-04 0.0000000000000000e+00  3.1689832756795015e-07 4.0500000000000003e-04 0.0000000000000000e+00  4.5877101789869937e-07 4.0500000000000003e-04 0.0000000000000000e+00  6.1353082189635835e-07 4.0500000000000003e-04 0.0000000000000000e+00  7.8101060962558059e-07 4.0500000000000003e-04 0.0000000000000000e+00  9.6178449019589533e-07 4.0500000000000003e-04 0.0000000000000000e+00  1.1564940067311854e-06 4.0500000000000003e-04 0.0000000000000000e+00  1.3647631968505544e-06 4.0500000000000003e-04 0.0000000000000000e+00  1.5884094886829044e-06 4.0500000000000003e-04 0.0000000000000000e+00  1.8267539567368546e-06 4.0500000000000003e-04 0.0000000000000000e+00  2.0785019647999989e-06 4.0500000000000003e-04 0.0000000000000000e+00  2.3466276777488297e-06 4.0500000000000003e-04 0.0000000000000000e+00  2.6298413227208182e-06 4.0500000000000003e-04 0.0000000000000000e+00  2.9288122657982516e-06 4.0500000000000003e-04 0.0000000000000000e+00  3.2428846332894188e-06 4.0500000000000003e-04 0.0000000000000000e+00  3.5702245061099274e-06 4.0500000000000003e-04 0.0000000000000000e+00  3.9173391089264208e-06 4.0500000000000003e-04 0.0000000000000000e+00  4.2694612687946787e-06 4.0500000000000003e-04 0.0000000000000000e+00  4.6342811778724614e-06 4.0500000000000003e-04 0.0000000000000000e+00  5.0086573383050852e-06 4.0500000000000003e-04 0.0000000000000000e+00  5.3901962095421339e-06 4.0500000000000003e-04 0.0000000000000000e+00  5.7694151532652166e-06 4.0500000000000003e-04 0.0000000000000000e+00  6.1481475457889930e-06 4.0500000000000003e-04 0.0000000000000000e+00  6.5187146281845618e-06 4.0500000000000003e-04 0.0000000000000000e+00  6.8771074933380735e-06 4.0500000000000003e-04 0.0000000000000000e+00  7.2190627270568436e-06 4.0500000000000003e-04 0.0000000000000000e+00  7.5246173305029909e-06 4.0500000000000003e-04 0.0000000000000000e+00  7.7949193095612018e-06 4.0500000000000003e-04 0.0000000000000000e+00  8.0129475018766785e-06 4.0500000000000003e-04 0.0000000000000000e+00  8.1942611770851096e-06 4.0500000000000003e-04 0.0000000000000000e+00  8.3029455457480454e-06 4.0500000000000003e-04 0.0000000000000000e+00  8.3322092435268657e-06 4.0500000000000003e-04 0.0000000000000000e+00  8.2877051367632075e-06 4.0500000000000003e-04 0.0000000000000000e+00  8.1341104494573028e-06 4.0500000000000003e-04 0.0000000000000000e+00  7.9062817983624143e-06 4.0500000000000003e-04 0.0000000000000000e+00  7.5606252765815769e-06 4.0500000000000003e-04 0.0000000000000000e+00  7.0738232563928975e-06 4.0500000000000003e-04 0.0000000000000000e+00  6.4515683632396628e-06 4.0500000000000003e-04 0.0000000000000000e+00  5.7085680105859296e-06 4.0500000000000003e-04 0.0000000000000000e+00  4.8205093175417839e-06 4.0500000000000003e-04 0.0000000000000000e+00  3.7881393290832350e-06 4.0500000000000003e-04 0.0000000000000000e+00  2.6243132277084556e-06 4.0500000000000003e-04 0.0000000000000000e+00  1.3165613889650165e-06 4.0500000000000003e-04 0.0000000000000000e+00  -7.5631038260806106e-08 4.0500000000000003e-04 0.0000000000000000e+00  -1.6324039225854466e-06 4.0500000000000003e-04 0.0000000000000000e+00  -3.2994332133045403e-06 4.0500000000000003e-04 0.0000000000000000e+00  -5.0702970251873257e-06 4.0500000000000003e-04 0.0000000000000000e+00  -6.9411296955098877e-06 4.0500000000000003e-04 0.0000000000000000e+00  -8.8875835233605513e-06 4.0500000000000003e-04 0.0000000000000000e+00  -1.0921881390437238e-05 4.0500000000000003e-04 0.0000000000000000e+00  -1.3008383647511669e-05 4.0500000000000003e-04 0.0000000000000000e+00  -1.5160120733310672e-05 4.0500000000000003e-04 0.0000000000000000e+00  -1.7350345980430189e-05 4.0500000000000003e-04 0.0000000000000000e+00  -1.9574321820043775e-05 4.0500000000000003e-04 0.0000000000000000e+00  -2.1824778479853656e-05 4.0500000000000003e-04 0.0000000000000000e+00  -2.4102049948894817e-05 4.0500000000000003e-04 0.0000000000000000e+00  -2.6389768531691463e-05 4.0500000000000003e-04 0.0000000000000000e+00  -2.8690294893570986e-05 4.0500000000000003e-04 0.0000000000000000e+00  -3.0996088396667183e-05 4.0500000000000003e-04 0.0000000000000000e+00  -3.3305593404806745e-05 4.0500000000000003e-04 0.0000000000000000e+00  -3.5616690064656464e-05 4.0500000000000003e-04 0.0000000000000000e+00  -3.7927545058507339e-05 4.0500000000000003e-04 0.0000000000000000e+00  -4.0237382398778063e-05 4.0500000000000003e-04 0.0000000000000000e+00  -4.2545263865704589e-05 4.0500000000000003e-04 0.0000000000000000e+00  -4.4852175521756861e-05 4.0500000000000003e-04 0.0000000000000000e+00  -4.7158149708352111e-05 4.0500000000000003e-04 0.0000000000000000e+00  -4.9464130403526071e-05 4.0500000000000003e-04 0.0000000000000000e+00  -5.1769017769812855e-05 4.0500000000000003e-04 0.0000000000000000e+00  -5.4074805633189091e-05 4.0500000000000003e-04 0.0000000000000000e+00  -5.6383522696520519e-05 4.0500000000000003e-04 0.0000000000000000e+00  -5.8695426729153634e-05 4.0500000000000003e-04 0.0000000000000000e+00  -6.1012688278043735e-05 4.0500000000000003e-04 0.0000000000000000e+00  -6.3335713736963157e-05 4.0500000000000003e-04 0.0000000000000000e+00  -6.5664701294066046e-05 4.0500000000000003e-04 0.0000000000000000e+00  -6.8002373505360474e-05 4.0500000000000003e-04 0.0000000000000000e+00  -7.0349901878900053e-05 4.0500000000000003e-04 0.0000000000000000e+00  -7.2708837016740270e-05 4.0500000000000003e-04 0.0000000000000000e+00  -7.5078592142865681e-05 4.0500000000000003e-04 0.0000000000000000e+00  -7.7455405709586108e-05 4.0500000000000003e-04 0.0000000000000000e+00  -7.9847952224471389e-05 4.0500000000000003e-04 0.0000000000000000e+00  -8.2254631221228880e-05 4.0500000000000003e-04 0.0000000000000000e+00  -8.4678084558594140e-05 4.0500000000000003e-04 0.0000000000000000e+00  -8.7107503791962715e-05 4.0500000000000003e-04 0.0000000000000000e+00  -8.9556468543358891e-05 4.0500000000000003e-04 0.0000000000000000e+00  -9.2023571564452393e-05 4.0500000000000003e-04 0.0000000000000000e+00  -9.4499157440789536e-05 4.0500000000000003e-04 0.0000000000000000e+00  -9.6992647936616140e-05 4.0500000000000003e-04 0.0000000000000000e+00  -9.9501694652107573e-05 4.0500000000000003e-04 0.0000000000000000e+00  -1.0202693059125693e-04 4.0500000000000003e-04 0.0000000000000000e+00  -1.0456463979382608e-04 4.0500000000000003e-04 0.0000000000000000e+00  -1.0711324059037342e-04 4.0500000000000003e-04 0.0000000000000000e+00  -1.0967550679364803e-04 4.0500000000000003e-04 0.0000000000000000e+00  -1.1225249039766439e-04 4.0500000000000003e-04 0.0000000000000000e+00  -1.1483896145904587e-04 4.0500000000000003e-04 0.0000000000000000e+00  -1.1743458629811917e-04 4.0500000000000003e-04 0.0000000000000000e+00  -1.2003937117378586e-04 4.0500000000000003e-04 0.0000000000000000e+00  -1.2265354236483758e-04 4.0500000000000003e-04 0.0000000000000000e+00  -1.2527022691253032e-04 4.0500000000000003e-04 0.0000000000000000e+00  -1.2789525641446927e-04 4.0500000000000003e-04 0.0000000000000000e+00  -1.3051744248876083e-04 4.0500000000000003e-04 0.0000000000000000e+00  -1.3314528129792827e-04 4.0500000000000003e-04 0.0000000000000000e+00  -1.3577313857647793e-04 4.0500000000000003e-04 0.0000000000000000e+00  -1.3839386093918819e-04 4.0500000000000003e-04 0.0000000000000000e+00  -1.4101115383131777e-04 4.0500000000000003e-04 0.0000000000000000e+00  -1.4362273717669955e-04 4.0500000000000003e-04 0.0000000000000000e+00  -1.4622438400945816e-04 4.0500000000000003e-04 0.0000000000000000e+00  -1.4881219954440055e-04 4.0500000000000003e-04 0.0000000000000000e+00  -1.5139465347668201e-04 4.0500000000000003e-04 0.0000000000000000e+00  -1.5395702058221649e-04 4.0500000000000003e-04 0.0000000000000000e+00  -1.5650069797706843e-04 4.0500000000000003e-04 0.0000000000000000e+00  -1.5902400695022510e-04 4.0500000000000003e-04 0.0000000000000000e+00  -1.6152160070519232e-04 4.0500000000000003e-04 0.0000000000000000e+00  -1.6399724187521618e-04 4.0500000000000003e-04 0.0000000000000000e+00  -1.6645070510284228e-04 4.0500000000000003e-04 0.0000000000000000e+00  -1.6886248974016803e-04 4.0500000000000003e-04 0.0000000000000000e+00  -1.7125528934331787e-04 4.0500000000000003e-04 0.0000000000000000e+00  -1.7357482935788685e-04 3.9796349165877000e-04 0.0000000000000000e+00  -1.7341633537958643e-04 3.9092491348505779e-04 0.0000000000000000e+00  -1.7319273290843432e-04 3.8388401903066487e-04 0.0000000000000000e+00  -1.7284706050526758e-04 3.7684035232814781e-04 0.0000000000000000e+00  -1.7241475040663130e-04 3.6980546984785004e-04 0.0000000000000000e+00  -1.7186482051032828e-04 3.6274815611688670e-04 0.0000000000000000e+00  -1.7122930654362215e-04 3.5570415058669701e-04 0.0000000000000000e+00  -1.7049794082345384e-04 3.4864150591498917e-04 0.0000000000000000e+00  -1.6965653499577467e-04 3.4157578884667667e-04 0.0000000000000000e+00  -1.6871157233841523e-04 3.3451670248290868e-04 0.0000000000000000e+00  -1.6766648882033530e-04 3.2743263093556985e-04 0.0000000000000000e+00  -1.6651423175556489e-04 3.2034695686026425e-04 0.0000000000000000e+00  -1.6526073235081365e-04 3.1324261576685979e-04 0.0000000000000000e+00  -1.6389185770878891e-04 3.0614762460149194e-04 0.0000000000000000e+00  -1.6242088984102355e-04 2.9901649958550701e-04 0.0000000000000000e+00  -1.6083369679779344e-04 2.9186657218383276e-04 0.0000000000000000e+00  -1.5913033796019545e-04 2.8471968002480687e-04 0.0000000000000000e+00  -1.5731389127699455e-04 2.7753656171297306e-04 0.0000000000000000e+00  -1.5537304198928799e-04 2.7035297361575693e-04 0.0000000000000000e+00  -1.5331157028031559e-04 2.6313905071346323e-04 0.0000000000000000e+00  -1.5113229173548750e-04 2.5587957788196394e-04 0.0000000000000000e+00  -1.4881544179027066e-04 2.4862642795489716e-04 0.0000000000000000e+00  -1.4637413505558174e-04 2.4131687542482312e-04 0.0000000000000000e+00  -1.4378567474085862e-04 2.3399226816988637e-04 0.0000000000000000e+00  -1.4107393683193302e-04 2.2661403156006780e-04 0.0000000000000000e+00  -1.3820231589968369e-04 2.1922286143500355e-04 0.0000000000000000e+00  -1.3520168758096517e-04 2.1175007798005302e-04 0.00000000000000