<?xml version="1.0"?>
<VTKFile type="UnstructuredGrid"  version="0.1"  >
<UnstructuredGrid>
<Piece  NumberOfPoints="16512" NumberOfCells="32424">
<Points>
<DataArray  type="Float64"  NumberOfComponents="3"  format="ascii">-25 4.9 0  25 4.9 0  25 -4.9 0  -25 -4.9 0  -10 0 0  10 0 0  -24.80000000000034 4.9 0  -24.60000000000068 4.9 0  -24.40000000000101 4.9 0  -24.20000000000135 4.9 0  -24.00000000000169 4.9 0  -23.80000000000203 4.9 0  -23.60000000000237 4.9 0  -23.40000000000271 4.9 0  -23.20000000000304 4.9 0  -23.00000000000338 4.9 0  -22.80000000000372 4.9 0  -22.60000000000406 4.9 0  -22.40000000000439 4.9 0  -22.20000000000473 4.9 0  -22.00000000000507 4.9 0  -21.80000000000541 4.9 0  -21.60000000000575 4.9 0  -21.40000000000608 4.9 0  -21.20000000000642 4.9 0  -21.00000000000676 4.9 0  -20.8000000000071 4.9 0  -20.60000000000744 4.9 0  -20.40000000000777 4.9 0  -20.20000000000811 4.9 0  -20.00000000000845 4.9 0  -19.80000000000879 4.9 0  -19.60000000000912 4.9 0  -19.40000000000946 4.9 0  -19.2000000000098 4.9 0  -19.00000000001039 4.9 0  -18.80000000001108 4.9 0  -18.60000000001231 4.9 0  -18.40000000001371 4.9 0  -18.2000000000154 4.9 0  -18.00000000001716 4.9 0  -17.80000000001892 4.9 0  -17.60000000002067 4.9 0  -17.40000000002243 4.9 0  -17.20000000002419 4.9 0  -17.00000000002595 4.9 0  -16.80000000002771 4.9 0  -16.60000000002947 4.9 0  -16.40000000003123 4.9 0  -16.20000000003299 4.9 0  -16.00000000003472 4.9 0  -15.80000000003612 4.9 0  -15.60000000003748 4.9 0  -15.40000000003853 4.9 0  -15.20000000003958 4.9 0  -15.00000000004063 4.9 0  -14.80000000004168 4.9 0  -14.60000000004273 4.9 0  -14.40000000004377 4.9 0  -14.20000000004482 4.9 0  -14.00000000004587 4.9 0  -13.80000000004692 4.9 0  -13.60000000004797 4.9 0  -13.40000000004902 4.9 0  -13.20000000005007 4.9 0  -13.00000000005111 4.9 0  -12.80000000005216 4.9 0  -12.60000000005321 4.9 0  -12.40000000005426 4.9 0  -12.20000000005531 4.9 0  -12.00000000005636 4.9 0  -11.80000000005741 4.9 0  -11.60000000005846 4.9 0  -11.4000000000595 4.9 0  -11.20000000006055 4.9 0  -11.0000000000616 4.9 0  -10.80000000006265 4.9 0  -10.6000000000637 4.9 0  -10.40000000006475 4.9 0  -10.2000000000658 4.9 0  -10.00000000006684 4.9 0  -9.800000000067891 4.9 0  -9.60000000006894 4.9 0  -9.400000000069989 4.9 0  -9.200000000070727 4.9 0  -9.00000000007142 4.9 0  -8.800000000071787 4.9 0  -8.600000000072125 4.9 0  -8.400000000072467 4.9 0  -8.200000000072805 4.9 0  -8.000000000073143 4.9 0  -7.800000000073481 4.9 0  -7.60000000007382 4.9 0  -7.400000000074154 4.9 0  -7.200000000074493 4.9 0  -7.000000000074831 4.9 0  -6.800000000075173 4.9 0  -6.600000000075511 4.9 0  -6.400000000075849 4.9 0  -6.200000000076187 4.9 0  -6.000000000076525 4.9 0  -5.800000000076867 4.9 0  -5.600000000077205 4.9 0  -5.400000000077544 4.9 0  -5.200000000077882 4.9 0  -5.00000000007822 4.9 0  -4.800000000078558 4.9 0  -4.600000000078897 4.9 0  -4.400000000079235 4.9 0  -4.200000000079573 4.9 0  -4.000000000079908 4.9 0  -3.800000000080246 4.9 0  -3.600000000080588 4.9 0  -3.400000000080926 4.9 0  -3.200000000081264 4.9 0  -3.000000000081606 4.9 0  -2.800000000081944 4.9 0  -2.600000000082282 4.9 0  -2.40000000008262 4.9 0  -2.200000000082959 4.9 0  -2.000000000083297 4.9 0  -1.800000000083635 4.9 0  -1.600000000083973 4.9 0  -1.400000000084312 4.9 0  -1.20000000008465 4.9 0  -1.000000000084988 4.9 0  -0.8000000000853262 4.9 0  -0.6000000000856645 4.9 0  -0.4000000000860027 4.9 0  -0.2000000000863409 4.9 0  -8.667910833537462e-11 4.9 0  0.1999999999129827 4.9 0  0.3999999999126409 4.9 0  0.5999999999123027 4.9 0  0.7999999999119716 4.9 0  0.9999999999116262 4.9 0  1.199999999911295 4.9 0  1.39999999991095 4.9 0  1.599999999910619 4.9 0  1.799999999910273 4.9 0  1.999999999909939 4.9 0  2.199999999909597 4.9 0  2.399999999909262 4.9 0  2.599999999908921 4.9 0  2.799999999908582 4.9 0  2.999999999908244 4.9 0  3.199999999907906 4.9 0  3.399999999907564 4.9 0  3.599999999907226 4.9 0  3.799999999906888 4.9 0  3.999999999906549 4.9 0  4.199999999906218 4.9 0  4.399999999905873 4.9 0  4.599999999905542 4.9 0  4.799999999905197 4.9 0  4.999999999904865 4.9 0  5.19999999990452 4.9 0  5.399999999904182 4.9 0  5.599999999903844 4.9 0  5.799999999903505 4.9 0  5.999999999903167 4.9 0  6.199999999902829 4.9 0  6.399999999902491 4.9 0  6.599999999902153 4.9 0  6.799999999902379 4.9 0  6.999999999902752 4.9 0  7.199999999903724 4.9 0  7.399999999904807 4.9 0  7.59999999990589 4.9 0  7.799999999906966 4.9 0  7.999999999908056 4.9 0  8.199999999909132 4.9 0  8.399999999910214 4.9 0  8.59999999991129 4.9 0  8.79999999991238 4.9 0  8.999999999913456 4.9 0  9.199999999914539 4.9 0  9.399999999915622 4.9 0  9.599999999916704 4.9 0  9.79999999991778 4.9 0  9.99999999991887 4.9 0  10.19999999991995 4.9 0  10.39999999992103 4.9 0  10.59999999992212 4.9 0  10.79999999992319 4.9 0  10.99999999992428 4.9 0  11.19999999992536 4.9 0  11.39999999992644 4.9 0  11.59999999992752 4.9 0  11.7999999999286 4.9 0  11.99999999992968 4.9 0  12.19999999993077 4.9 0  12.39999999993184 4.9 0  12.59999999993293 4.9 0  12.79999999993401 4.9 0  12.99999999993509 4.9 0  13.19999999993617 4.9 0  13.39999999993726 4.9 0  13.59999999993834 4.9 0  13.79999999993942 4.9 0  13.99999999994051 4.9 0  14.19999999994158 4.9 0  14.39999999994266 4.9 0  14.59999999994375 4.9 0  14.79999999994483 4.9 0  14.99999999994591 4.9 0  15.199999999947 4.9 0  15.39999999994807 4.9 0  15.59999999994915 4.9 0  15.79999999995024 4.9 0  15.99999999995132 4.9 0  16.1999999999524 4.9 0  16.39999999995349 4.9 0  16.59999999995456 4.9 0  16.79999999995565 4.9 0  16.99999999995674 4.9 0  17.19999999995781 4.9 0  17.39999999995889 4.9 0  17.59999999995997 4.9 0  17.79999999996106 4.9 0  17.99999999996214 4.9 0  18.19999999996322 4.9 0  18.3999999999643 4.9 0  18.59999999996538 4.9 0  18.79999999996646 4.9 0  18.99999999996755 4.9 0  19.19999999996863 4.9 0  19.39999999996971 4.9 0  19.59999999997079 4.9 0  19.79999999997187 4.9 0  19.99999999997296 4.9 0  20.19999999997404 4.9 0  20.39999999997512 4.9 0  20.5999999999762 4.9 0  20.79999999997728 4.9 0  20.99999999997836 4.9 0  21.19999999997945 4.9 0  21.39999999998052 4.9 0  21.59999999998161 4.9 0  21.79999999998269 4.9 0  21.99999999998377 4.9 0  22.19999999998485 4.9 0  22.39999999998594 4.9 0  22.59999999998701 4.9 0  22.7999999999881 4.9 0  22.99999999998919 4.9 0  23.19999999999026 4.9 0  23.39999999999135 4.9 0  23.59999999999243 4.9 0  23.79999999999351 4.9 0  23.99999999999459 4.9 0  24.19999999999568 4.9 0  24.39999999999675 4.9 0  24.59999999999783 4.9 0  24.79999999999892 4.9 0  25 4.700000000000415 0  25 4.500000000000868 0  25 4.300000000001562 0  25 4.100000000001831 0  25 3.900000000002072 0  25 3.700000000002459 0  25 3.500000000003038 0  25 3.300000000003653 0  25 3.100000000004294 0  25 2.900000000004838 0  25 2.700000000005293 0  25 2.500000000005957 0  25 2.300000000006508 0  25 2.100000000007153 0  25 1.900000000007722 0  25 1.700000000008417 0  25 1.500000000008938 0  25 1.30000000000963 0  25 1.100000000010154 0  25 0.9000000000108268 0  25 0.7000000000114559 0  25 0.5000000000119762 0  25 0.3000000000126564 0  25 0.1000000000131926 0  25 -0.09999999998679243 0  25 -0.2999999999874587 0  25 -0.4999999999878586 0  25 -0.6999999999884441 0  25 -0.899999999988804 0  25 -1.099999999989427 0  25 -1.299999999989749 0  25 -1.499999999990411 0  25 -1.69999999999073 0  25 -1.899999999991396 0  25 -2.099999999991715 0  25 -2.299999999992381 0  25 -2.499999999993047 0  25 -2.699999999993714 0  25 -2.899999999994227 0  25 -3.099999999994698 0  25 -3.299999999994673 0  25 -3.499999999995339 0  25 -3.699999999996004 0  25 -3.89999999999667 0  25 -4.099999999997335 0  25 -4.299999999998002 0  25 -4.499999999998668 0  25 -4.699999999999335 0  24.80000000000034 -4.9 0  24.60000000000068 -4.9 0  24.40000000000101 -4.9 0  24.20000000000135 -4.9 0  24.00000000000169 -4.9 0  23.80000000000203 -4.9 0  23.60000000000237 -4.9 0  23.40000000000271 -4.9 0  23.20000000000304 -4.9 0  23.00000000000338 -4.9 0  22.80000000000372 -4.9 0  22.60000000000406 -4.9 0  22.40000000000439 -4.9 0  22.20000000000473 -4.9 0  22.00000000000507 -4.9 0  21.80000000000541 -4.9 0  21.60000000000575 -4.9 0  21.40000000000608 -4.9 0  21.20000000000642 -4.9 0  21.00000000000676 -4.9 0  20.8000000000071 -4.9 0  20.60000000000744 -4.9 0  20.40000000000777 -4.9 0  20.20000000000811 -4.9 0  20.00000000000845 -4.9 0  19.80000000000879 -4.9 0  19.60000000000912 -4.9 0  19.40000000000946 -4.9 0  19.2000000000098 -4.9 0  19.00000000001039 -4.9 0  18.80000000001108 -4.9 0  18.60000000001231 -4.9 0  18.40000000001371 -4.9 0  18.2000000000154 -4.9 0  18.00000000001716 -4.9 0  17.80000000001892 -4.9 0  17.60000000002067 -4.9 0  17.40000000002243 -4.9 0  17.20000000002419 -4.9 0  17.00000000002595 -4.9 0  16.80000000002771 -4.9 0  16.60000000002947 -4.9 0  16.40000000003123 -4.9 0  16.20000000003299 -4.9 0  16.00000000003472 -4.9 0  15.80000000003612 -4.9 0  15.60000000003748 -4.9 0  15.40000000003853 -4.9 0  15.20000000003958 -4.9 0  15.00000000004063 -4.9 0  14.80000000004168 -4.9 0  14.60000000004273 -4.9 0  14.40000000004377 -4.9 0  14.20000000004482 -4.9 0  14.00000000004587 -4.9 0  13.80000000004692 -4.9 0  13.60000000004797 -4.9 0  13.40000000004902 -4.9 0  13.20000000005007 -4.9 0  13.00000000005111 -4.9 0  12.80000000005216 -4.9 0  12.60000000005321 -4.9 0  12.40000000005426 -4.9 0  12.20000000005531 -4.9 0  12.00000000005636 -4.9 0  11.80000000005741 -4.9 0  11.60000000005846 -4.9 0  11.4000000000595 -4.9 0  11.20000000006055 -4.9 0  11.0000000000616 -4.9 0  10.80000000006265 -4.9 0  10.6000000000637 -4.9 0  10.40000000006475 -4.9 0  10.2000000000658 -4.9 0  10.00000000006684 -4.9 0  9.800000000067891 -4.9 0  9.60000000006894 -4.9 0  9.400000000069989 -4.9 0  9.200000000070727 -4.9 0  9.00000000007142 -4.9 0  8.800000000071787 -4.9 0  8.600000000072125 -4.9 0  8.400000000072467 -4.9 0  8.200000000072805 -4.9 0  8.000000000073143 -4.9 
[...]
<PointData  Vectors="f_7"> 
<DataArray  type="Float64"  Name="f_7"  NumberOfComponents="3" format="ascii">2.6907058232341339e-04 6.8500000000000006e-04 0.0000000000000000e+00  -2.6898299590304419e-04 6.8500000000000006e-04 0.0000000000000000e+00  0.0000000000000000e+00 0.0000000000000000e+00 0.0000000000000000e+00  0.0000000000000000e+00 0.0000000000000000e+00 0.0000000000000000e+00  3.7636266445885460e-05 3.4504489524931671e-04 0.0000000000000000e+00  -3.8138669253910238e-05 3.3737904797349628e-04 0.0000000000000000e+00  2.6494717425075746e-04 6.8500000000000006e-04 0.0000000000000000e+00  2.6079780263989991e-04 6.8500000000000006e-04 0.0000000000000000e+00  2.5662620909655309e-04 6.8500000000000006e-04 0.0000000000000000e+00  2.5237971659329604e-04 6.8500000000000006e-04 0.0000000000000000e+00  2.4811444280320872e-04 6.8500000000000006e-04 0.0000000000000000e+00  2.4379345133122867e-04 6.8500000000000006e-04 0.0000000000000000e+00  2.3944726113651866e-04 6.8500000000000006e-04 0.0000000000000000e+00  2.3505386384103984e-04 6.8500000000000006e-04 0.0000000000000000e+00  2.3064820942806996e-04 6.8500000000000006e-04 0.0000000000000000e+00  2.2620164036848695e-04 6.8500000000000006e-04 0.0000000000000000e+00  2.2173088215349411e-04 6.8500000000000006e-04 0.0000000000000000e+00  2.1725527809521577e-04 6.8500000000000006e-04 0.0000000000000000e+00  2.1273188535097552e-04 6.8500000000000006e-04 0.0000000000000000e+00  2.0820781773408704e-04 6.8500000000000006e-04 0.0000000000000000e+00  2.0367562488471887e-04 6.8500000000000006e-04 0.0000000000000000e+00  1.9913769933607261e-04 6.8500000000000006e-04 0.0000000000000000e+00  1.9456665461649908e-04 6.8500000000000006e-04 0.0000000000000000e+00  1.9000342095255212e-04 6.8500000000000006e-04 0.0000000000000000e+00  1.8544688130590502e-04 6.8500000000000006e-04 0.0000000000000000e+00  1.8086951234908891e-04 6.8500000000000006e-04 0.0000000000000000e+00  1.7629996510655204e-04 6.8500000000000006e-04 0.0000000000000000e+00  1.7173504213749099e-04 6.8500000000000006e-04 0.0000000000000000e+00  1.6718041507612151e-04 6.8500000000000006e-04 0.0000000000000000e+00  1.6263857901111463e-04 6.8500000000000006e-04 0.0000000000000000e+00  1.5808042936592528e-04 6.8500000000000006e-04 0.0000000000000000e+00  1.5353876604782293e-04 6.8500000000000006e-04 0.0000000000000000e+00  1.4901222823005146e-04 6.8500000000000006e-04 0.0000000000000000e+00  1.4449166220890876e-04 6.8500000000000006e-04 0.0000000000000000e+00  1.3998223454128454e-04 6.8500000000000006e-04 0.0000000000000000e+00  1.3548518625052463e-04 6.8500000000000006e-04 0.0000000000000000e+00  1.3099411440868638e-04 6.8500000000000006e-04 0.0000000000000000e+00  1.2651416353632550e-04 6.8500000000000006e-04 0.0000000000000000e+00  1.2204602930137283e-04 6.8500000000000006e-04 0.0000000000000000e+00  1.1759068108160410e-04 6.8500000000000006e-04 0.0000000000000000e+00  1.1313099358277208e-04 6.8500000000000006e-04 0.0000000000000000e+00  1.0868419177265977e-04 6.8500000000000006e-04 0.0000000000000000e+00  1.0424025011288924e-04 6.8500000000000006e-04 0.0000000000000000e+00  9.9802488554418659e-05 6.8500000000000006e-04 0.0000000000000000e+00  9.5361502723306083e-05 6.8500000000000006e-04 0.0000000000000000e+00  9.0922282800963062e-05 6.8500000000000006e-04 0.0000000000000000e+00  8.6481950669805695e-05 6.8500000000000006e-04 0.0000000000000000e+00  8.2035655098837830e-05 6.8500000000000006e-04 0.0000000000000000e+00  7.7580736527767580e-05 6.8500000000000006e-04 0.0000000000000000e+00  7.3115497668818869e-05 6.8500000000000006e-04 0.0000000000000000e+00  6.8636172732588092e-05 6.8500000000000006e-04 0.0000000000000000e+00  6.4140909493180670e-05 6.8500000000000006e-04 0.0000000000000000e+00  5.9628628922328203e-05 6.8500000000000006e-04 0.0000000000000000e+00  5.5092170931772894e-05 6.8500000000000006e-04 0.0000000000000000e+00  5.0529647111010281e-05 6.8500000000000006e-04 0.0000000000000000e+00  4.5943993375141697e-05 6.8500000000000006e-04 0.0000000000000000e+00  4.1326685472189993e-05 6.8500000000000006e-04 0.0000000000000000e+00  3.6678742152628852e-05 6.8500000000000006e-04 0.0000000000000000e+00  3.1998614844824381e-05 6.8500000000000006e-04 0.0000000000000000e+00  2.7273497041969369e-05 6.8500000000000006e-04 0.0000000000000000e+00  2.2531251342493410e-05 6.8500000000000006e-04 0.0000000000000000e+00  1.7751472316508970e-05 6.8500000000000006e-04 0.0000000000000000e+00  1.2940540715650050e-05 6.8500000000000006e-04 0.0000000000000000e+00  8.0971943196925396e-06 6.8500000000000006e-04 0.0000000000000000e+00  3.2356869997671405e-06 6.8500000000000006e-04 0.0000000000000000e+00  -1.6509895851021087e-06 6.8500000000000006e-04 0.0000000000000000e+00  -6.5192556597709014e-06 6.8500000000000006e-04 0.0000000000000000e+00  -1.1389285142549921e-05 6.8500000000000006e-04 0.0000000000000000e+00  -1.6240710601066854e-05 6.8500000000000006e-04 0.0000000000000000e+00  -2.1065938875266956e-05 6.8500000000000006e-04 0.0000000000000000e+00  -2.5846305938171243e-05 6.8500000000000006e-04 0.0000000000000000e+00  -3.0524811338942991e-05 6.8500000000000006e-04 0.0000000000000000e+00  -3.5102126720850959e-05 6.8500000000000006e-04 0.0000000000000000e+00  -3.9517840133145853e-05 6.8500000000000006e-04 0.0000000000000000e+00  -4.3811337878988071e-05 6.8500000000000006e-04 0.0000000000000000e+00  -4.7967829570477033e-05 6.8500000000000006e-04 0.0000000000000000e+00  -5.1887114573608969e-05 6.8500000000000006e-04 0.0000000000000000e+00  -5.5521022734965799e-05 6.8500000000000006e-04 0.0000000000000000e+00  -5.8897892681458493e-05 6.8500000000000006e-04 0.0000000000000000e+00  -6.2047285120654284e-05 6.8500000000000006e-04 0.0000000000000000e+00  -6.4811382696622778e-05 6.8500000000000006e-04 0.0000000000000000e+00  -6.7304724113448407e-05 6.8500000000000006e-04 0.0000000000000000e+00  -6.9451519538290464e-05 6.8500000000000006e-04 0.0000000000000000e+00  -7.1217723138964609e-05 6.8500000000000006e-04 0.0000000000000000e+00  -7.2653373063444229e-05 6.8500000000000006e-04 0.0000000000000000e+00  -7.3769196873467959e-05 6.8500000000000006e-04 0.0000000000000000e+00  -7.4539038511099094e-05 6.8500000000000006e-04 0.0000000000000000e+00  -7.4970231190134984e-05 6.8500000000000006e-04 0.0000000000000000e+00  -7.5073796285516140e-05 6.8500000000000006e-04 0.0000000000000000e+00  -7.4873060631633801e-05 6.8500000000000006e-04 0.0000000000000000e+00  -7.4429365706780927e-05 6.8500000000000006e-04 0.0000000000000000e+00  -7.3748125369401654e-05 6.8500000000000006e-04 0.0000000000000000e+00  -7.2803014325282538e-05 6.8500000000000006e-04 0.0000000000000000e+00  -7.1627222617599875e-05 6.8500000000000006e-04 0.0000000000000000e+00  -7.0302315310759712e-05 6.8500000000000006e-04 0.0000000000000000e+00  -6.8818956557842475e-05 6.8500000000000006e-04 0.0000000000000000e+00  -6.7195459934274188e-05 6.8500000000000006e-04 0.0000000000000000e+00  -6.5414219308309422e-05 6.8500000000000006e-04 0.0000000000000000e+00  -6.3546423597845038e-05 6.8500000000000006e-04 0.0000000000000000e+00  -6.1592811343434470e-05 6.8500000000000006e-04 0.0000000000000000e+00  -5.9579301679311706e-05 6.8500000000000006e-04 0.0000000000000000e+00  -5.7479475368259353e-05 6.8500000000000006e-04 0.0000000000000000e+00  -5.5356483415998871e-05 6.8500000000000006e-04 0.0000000000000000e+00  -5.3206954913085039e-05 6.8500000000000006e-04 0.0000000000000000e+00  -5.1030058505461439e-05 6.8500000000000006e-04 0.0000000000000000e+00  -4.8840852127689001e-05 6.8500000000000006e-04 0.0000000000000000e+00  -4.6655165420201984e-05 6.8500000000000006e-04 0.0000000000000000e+00  -4.4479423685092753e-05 6.8500000000000006e-04 0.0000000000000000e+00  -4.2291612124795776e-05 6.8500000000000006e-04 0.0000000000000000e+00  -4.0132398329958795e-05 6.8500000000000006e-04 0.0000000000000000e+00  -3.7994759414971204e-05 6.8500000000000006e-04 0.0000000000000000e+00  -3.5882440857318865e-05 6.8500000000000006e-04 0.0000000000000000e+00  -3.3800631900420324e-05 6.8500000000000006e-04 0.0000000000000000e+00  -3.1738644333097307e-05 6.8500000000000006e-04 0.0000000000000000e+00  -2.9709422811900285e-05 6.8500000000000006e-04 0.0000000000000000e+00  -2.7712256830167307e-05 6.8500000000000006e-04 0.0000000000000000e+00  -2.5744975115065431e-05 6.8500000000000006e-04 0.0000000000000000e+00  -2.3810051504138571e-05 6.8500000000000006e-04 0.0000000000000000e+00  -2.1894865489025989e-05 6.8500000000000006e-04 0.0000000000000000e+00  -2.0011535216208289e-05 6.8500000000000006e-04 0.0000000000000000e+00  -1.8153227547903507e-05 6.8500000000000006e-04 0.0000000000000000e+00  -1.6321127948991790e-05 6.8500000000000006e-04 0.0000000000000000e+00  -1.4510488538984225e-05 6.8500000000000006e-04 0.0000000000000000e+00  -1.2722516799986333e-05 6.8500000000000006e-04 0.0000000000000000e+00  -1.0954052349033142e-05 6.8500000000000006e-04 0.0000000000000000e+00  -9.2031357336250027e-06 6.8500000000000006e-04 0.0000000000000000e+00  -7.4686106144185754e-06 6.8500000000000006e-04 0.0000000000000000e+00  -5.7481539215253234e-06 6.8500000000000006e-04 0.0000000000000000e+00  -4.0397238580744029e-06 6.8500000000000006e-04 0.0000000000000000e+00  -2.3400145369864383e-06 6.8500000000000006e-04 0.0000000000000000e+00  -6.4886179834052362e-07 6.8500000000000006e-04 0.0000000000000000e+00  1.0358609817142575e-06 6.8500000000000006e-04 0.0000000000000000e+00  2.7169519051006588e-06 6.8500000000000006e-04 0.0000000000000000e+00  4.3967275077363305e-06 6.8500000000000006e-04 0.0000000000000000e+00  6.0779960920347604e-06 6.8500000000000006e-04 0.0000000000000000e+00  7.7604414325373575e-06 6.8500000000000006e-04 0.0000000000000000e+00  9.4494375502895173e-06 6.8500000000000006e-04 0.0000000000000000e+00  1.1147084020588394e-05 6.8500000000000006e-04 0.0000000000000000e+00  1.2857030163475251e-05 6.8500000000000006e-04 0.0000000000000000e+00  1.4582312669056153e-05 6.8500000000000006e-04 0.0000000000000000e+00  1.6320556110614809e-05 6.8500000000000006e-04 0.0000000000000000e+00  1.8079523355088105e-05 6.8500000000000006e-04 0.0000000000000000e+00  1.9861161259441620e-05 6.8500000000000006e-04 0.0000000000000000e+00  2.1668399310866599e-05 6.8500000000000006e-04 0.0000000000000000e+00  2.3502531161359697e-05 6.8500000000000006e-04 0.0000000000000000e+00  2.5367975699088353e-05 6.8500000000000006e-04 0.0000000000000000e+00  2.7261663768186210e-05 6.8500000000000006e-04 0.0000000000000000e+00  2.9192403682024258e-05 6.8500000000000006e-04 0.0000000000000000e+00  3.1159803947685304e-05 6.8500000000000006e-04 0.0000000000000000e+00  3.3151991156706353e-05 6.8500000000000006e-04 0.0000000000000000e+00  3.5185482055476871e-05 6.8500000000000006e-04 0.0000000000000000e+00  3.7254703558508083e-05 6.8500000000000006e-04 0.0000000000000000e+00  3.9353556632247606e-05 6.8500000000000006e-04 0.0000000000000000e+00  4.1483601957696575e-05 6.8500000000000006e-04 0.0000000000000000e+00  4.3638266493928743e-05 6.8500000000000006e-04 0.0000000000000000e+00  4.5833923222170526e-05 6.8500000000000006e-04 0.0000000000000000e+00  4.8022253344087796e-05 6.8500000000000006e-04 0.0000000000000000e+00  5.0225992576163183e-05 6.8500000000000006e-04 0.0000000000000000e+00  5.2435866497509088e-05 6.8500000000000006e-04 0.0000000000000000e+00  5.4646614054499690e-05 6.8500000000000006e-04 0.0000000000000000e+00  5.6818076740250788e-05 6.8500000000000006e-04 0.0000000000000000e+00  5.8964928158174213e-05 6.8500000000000006e-04 0.0000000000000000e+00  6.1060305897349295e-05 6.8500000000000006e-04 0.0000000000000000e+00  6.3091950728022956e-05 6.8500000000000006e-04 0.0000000000000000e+00  6.5048021395704793e-05 6.8500000000000006e-04 0.0000000000000000e+00  6.6865960869059589e-05 6.8500000000000006e-04 0.0000000000000000e+00  6.8552601395134217e-05 6.8500000000000006e-04 0.0000000000000000e+00  7.0058203337150597e-05 6.8500000000000006e-04 0.0000000000000000e+00  7.1440243687221545e-05 6.8500000000000006e-04 0.0000000000000000e+00  7.2585864907780389e-05 6.8500000000000006e-04 0.0000000000000000e+00  7.3481394662531439e-05 6.8500000000000006e-04 0.0000000000000000e+00  7.4150982523623523e-05 6.8500000000000006e-04 0.0000000000000000e+00  7.4493539440518642e-05 6.8500000000000006e-04 0.0000000000000000e+00  7.4619790137804860e-05 6.8500000000000006e-04 0.0000000000000000e+00  7.4405975567418261e-05 6.8500000000000006e-04 0.0000000000000000e+00  7.3795979124808881e-05 6.8500000000000006e-04 0.0000000000000000e+00  7.2806679769836809e-05 6.8500000000000006e-04 0.0000000000000000e+00  7.1494402767916312e-05 6.8500000000000006e-04 0.0000000000000000e+00  6.9796720548406376e-05 6.8500000000000006e-04 0.0000000000000000e+00  6.7722329649068445e-05 6.8500000000000006e-04 0.0000000000000000e+00  6.5315293592020087e-05 6.8500000000000006e-04 0.0000000000000000e+00  6.2540009022005440e-05 6.8500000000000006e-04 0.0000000000000000e+00  5.9566054455566181e-05 6.8500000000000006e-04 0.0000000000000000e+00  5.6175189748593496e-05 6.8500000000000006e-04 0.0000000000000000e+00  5.2524969882582498e-05 6.8500000000000006e-04 0.0000000000000000e+00  4.8632307751378138e-05 6.8500000000000006e-04 0.0000000000000000e+00  4.4511240277493283e-05 6.8500000000000006e-04 0.0000000000000000e+00  4.0227592456401924e-05 6.8500000000000006e-04 0.0000000000000000e+00  3.5743517945293324e-05 6.8500000000000006e-04 0.0000000000000000e+00  3.1159539095123425e-05 6.8500000000000006e-04 0.0000000000000000e+00  2.6441532944274127e-05 6.8500000000000006e-04 0.0000000000000000e+00  2.1656056242891330e-05 6.8500000000000006e-04 0.0000000000000000e+00  1.6816637567741535e-05 6.8500000000000006e-04 0.0000000000000000e+00  1.1944304614914147e-05 6.8500000000000006e-04 0.0000000000000000e+00  7.0322897129516868e-06 6.8500000000000006e-04 0.0000000000000000e+00  2.1277795289666501e-06 6.8500000000000006e-04 0.0000000000000000e+00  -2.7770745561090433e-06 6.8500000000000006e-04 0.0000000000000000e+00  -7.6643674682007468e-06 6.8500000000000006e-04 0.0000000000000000e+00  -1.2528931639635437e-05 6.8500000000000006e-04 0.0000000000000000e+00  -1.7364992014972655e-05 6.8500000000000006e-04 0.0000000000000000e+00  -2.2169952987890933e-05 6.8500000000000006e-04 0.0000000000000000e+00  -2.6940394087452304e-05 6.8500000000000006e-04 0.0000000000000000e+00  -3.1673401167439498e-05 6.8500000000000006e-04 0.0000000000000000e+00  -3.6377862762654783e-05 6.8500000000000006e-04 0.0000000000000000e+00  -4.1044659041583780e-05 6.8500000000000006e-04 0.0000000000000000e+00  -4.5675565594688352e-05 6.8500000000000006e-04 0.0000000000000000e+00  -5.0281153631719551e-05 6.8500000000000006e-04 0.0000000000000000e+00  -5.4853568623997638e-05 6.8500000000000006e-04 0.0000000000000000e+00  -5.9402981794879640e-05 6.8500000000000006e-04 0.0000000000000000e+00  -6.3928866669047212e-05 6.8500000000000006e-04 0.0000000000000000e+00  -6.8435383332601235e-05 6.8500000000000006e-04 0.0000000000000000e+00  -7.2924667602717718e-05 6.8500000000000006e-04 0.0000000000000000e+00  -7.7397163456353072e-05 6.8500000000000006e-04 0.0000000000000000e+00  -8.1860173251688487e-05 6.8500000000000006e-04 0.0000000000000000e+00  -8.6315369541437574e-05 6.8500000000000006e-04 0.0000000000000000e+00  -9.0765820270375538e-05 6.8500000000000006e-04 0.0000000000000000e+00  -9.5212557492780397e-05 6.8500000000000006e-04 0.0000000000000000e+00  -9.9653204842644802e-05 6.8500000000000006e-04 0.0000000000000000e+00  -1.0409714153467291e-04 6.8500000000000006e-04 0.0000000000000000e+00  -1.0854563656278810e-04 6.8500000000000006e-04 0.0000000000000000e+00  -1.1300196323653827e-04 6.8500000000000006e-04 0.0000000000000000e+00  -1.1745436116565064e-04 6.8500000000000006e-04 0.0000000000000000e+00  -1.2191951069505074e-04 6.8500000000000006e-04 0.0000000000000000e+00  -1.2639646697632049e-04 6.8500000000000006e-04 0.0000000000000000e+00  -1.3087375675647172e-04 6.8500000000000006e-04 0.0000000000000000e+00  -1.3536491466312583e-04 6.8500000000000006e-04 0.0000000000000000e+00  -1.3986752678848041e-04 6.8500000000000006e-04 0.0000000000000000e+00  -1.4438287390781653e-04 6.8500000000000006e-04 0.0000000000000000e+00  -1.4890561008604815e-04 6.8500000000000006e-04 0.0000000000000000e+00  -1.5343304644762349e-04 6.8500000000000006e-04 0.0000000000000000e+00  -1.5797150146043399e-04 6.8500000000000006e-04 0.0000000000000000e+00  -1.6252243433275088e-04 6.8500000000000006e-04 0.0000000000000000e+00  -1.6707730467559667e-04 6.8500000000000006e-04 0.0000000000000000e+00  -1.7163701826141182e-04 6.8500000000000006e-04 0.0000000000000000e+00  -1.7620132757516539e-04 6.8500000000000006e-04 0.0000000000000000e+00  -1.8077188106043306e-04 6.8500000000000006e-04 0.0000000000000000e+00  -1.8533781678660132e-04 6.8500000000000006e-04 0.0000000000000000e+00  -1.8990813292059261e-04 6.8500000000000006e-04 0.0000000000000000e+00  -1.9446727528731598e-04 6.8500000000000006e-04 0.0000000000000000e+00  -1.9902738063056998e-04 6.8500000000000006e-04 0.0000000000000000e+00  -2.0358057261518096e-04 6.8500000000000006e-04 0.0000000000000000e+00  -2.0811628049486740e-04 6.8500000000000006e-04 0.0000000000000000e+00  -2.1264064126124392e-04 6.8500000000000006e-04 0.0000000000000000e+00  -2.1715065967919787e-04 6.8500000000000006e-04 0.0000000000000000e+00  -2.2164017332092754e-04 6.8500000000000006e-04 0.0000000000000000e+00  -2.2610360869625338e-04 6.8500000000000006e-04 0.0000000000000000e+00  -2.3055445004886607e-04 6.8500000000000006e-04 0.0000000000000000e+00  -2.3497074160564374e-04 6.8500000000000006e-04 0.0000000000000000e+00  -2.3935521997068282e-04 6.8500000000000006e-04 0.0000000000000000e+00  -2.4370586199350537e-04 6.8500000000000006e-04 0.0000000000000000e+00  -2.4801545068261468e-04 6.8500000000000006e-04 0.0000000000000000e+00  -2.5229013916961931e-04 6.8500000000000006e-04 0.0000000000000000e+00  -2.5652990754728897e-04 6.8500000000000006e-04 0.0000000000000000e+00  -2.6070795244715689e-04 6.8500000000000006e-04 0.0000000000000000e+00  -2.6485744711755052e-04 6.8500000000000006e-04 0.0000000000000000e+00  -2.6890197051397294e-04 6.7275694935656314e-04 0.0000000000000000e+00  -2.6867691315156161e-04 6.6051174952738777e-04 0.0000000000000000e+00  -2.6835967460680355e-04 6.4826448041352663e-04 0.0000000000000000e+00  -2.6786837012598524e-04 6.3601499985156261e-04 0.0000000000000000e+00  -2.6725348411230917e-04 6.2378085529158332e-04 0.0000000000000000e+00  -2.6647090259615828e-04 6.1151720717776193e-04 0.0000000000000000e+00  -2.6556573304394249e-04 5.9927634876383480e-04 0.0000000000000000e+00  -2.6452247350210650e-04 5.8701320016854531e-04 0.0000000000000000e+00  -2.6332043897003908e-04 5.7475040822127217e-04 0.0000000000000000e+00  -2.6196974250768156e-04 5.6250284019829342e-04 0.0000000000000000e+00  -2.6047163209467063e-04 5.5022502027896188e-04 0.0000000000000000e+00  -2.5881896860005440e-04 5.3795126056373525e-04 0.0000000000000000e+00  -2.5701570775555520e-04 5.2565728223306441e-04 0.0000000000000000e+00  -2.5504387128850146e-04 5.1338510739779757e-04 0.0000000000000000e+00  -2.5291993672435601e-04 5.0106702891486562e-04 0.0000000000000000e+00  -2.5062203106000395e-04 4.8872957626918203e-04 0.0000000000000000e+00  -2.4815175041444630e-04 4.7640618740855972e-04 0.0000000000000000e+00  -2.4550838615240120e-04 4.6403789769319044e-04 0.0000000000000000e+00  -2.4267897221324556e-04 4.5167910449922798e-04 0.0000000000000000e+00  -2.3966553883665928e-04 4.3928569820412221e-04 0.0000000000000000e+00  -2.3646863019665074e-04 4.2683331235625419e-04 0.0000000000000000e+00  -2.3306334290269971e-04 4.1440241668982020e-04 0.0000000000000000e+00  -2.2946124024190298e-04 4.0189618030698533e-04 0.0000000000000000e+00  -2.2563464084934771e-04 3.8937896613761561e-04 0.0000000000000000e+00  -2.2161010558807928e-04 3.7679117432767314e-04 0.0000000000000000e+00  -2.1733780871289009e-04 3.6419727364787234e-04 0.0000000000000000e+00  -2.1285586770557693e-04 3.5148901091806416e-04 0.0000000000000000e+00  