<?xml version="1.0"?>
<VTKFile type="UnstructuredGrid"  version="0.1"  >
<UnstructuredGrid>
<Piece  NumberOfPoints="16512" NumberOfCells="32424">
<Points>
<DataArray  type="Float64"  NumberOfComponents="3"  format="ascii">-25 4.9 0  25 4.9 0  25 -4.9 0  -25 -4.9 0  -10 0 0  10 0 0  -24.80000000000034 4.9 0  -24.60000000000068 4.9 0  -24.40000000000101 4.9 0  -24.20000000000135 4.9 0  -24.00000000000169 4.9 0  -23.80000000000203 4.9 0  -23.60000000000237 4.9 0  -23.40000000000271 4.9 0  -23.20000000000304 4.9 0  -23.00000000000338 4.9 0  -22.80000000000372 4.9 0  -22.60000000000406 4.9 0  -22.40000000000439 4.9 0  -22.20000000000473 4.9 0  -22.00000000000507 4.9 0  -21.80000000000541 4.9 0  -21.60000000000575 4.9 0  -21.40000000000608 4.9 0  -21.20000000000642 4.9 0  -21.00000000000676 4.9 0  -20.8000000000071 4.9 0  -20.60000000000744 4.9 0  -20.40000000000777 4.9 0  -20.20000000000811 4.9 0  -20.00000000000845 4.9 0  -19.80000000000879 4.9 0  -19.60000000000912 4.9 0  -19.40000000000946 4.9 0  -19.2000000000098 4.9 0  -19.00000000001039 4.9 0  -18.80000000001108 4.9 0  -18.60000000001231 4.9 0  -18.40000000001371 4.9 0  -18.2000000000154 4.9 0  -18.00000000001716 4.9 0  -17.80000000001892 4.9 0  -17.60000000002067 4.9 0  -17.40000000002243 4.9 0  -17.20000000002419 4.9 0  -17.00000000002595 4.9 0  -16.80000000002771 4.9 0  -16.60000000002947 4.9 0  -16.40000000003123 4.9 0  -16.20000000003299 4.9 0  -16.00000000003472 4.9 0  -15.80000000003612 4.9 0  -15.60000000003748 4.9 0  -15.40000000003853 4.9 0  -15.20000000003958 4.9 0  -15.00000000004063 4.9 0  -14.80000000004168 4.9 0  -14.60000000004273 4.9 0  -14.40000000004377 4.9 0  -14.20000000004482 4.9 0  -14.00000000004587 4.9 0  -13.80000000004692 4.9 0  -13.60000000004797 4.9 0  -13.40000000004902 4.9 0  -13.20000000005007 4.9 0  -13.00000000005111 4.9 0  -12.80000000005216 4.9 0  -12.60000000005321 4.9 0  -12.40000000005426 4.9 0  -12.20000000005531 4.9 0  -12.00000000005636 4.9 0  -11.80000000005741 4.9 0  -11.60000000005846 4.9 0  -11.4000000000595 4.9 0  -11.20000000006055 4.9 0  -11.0000000000616 4.9 0  -10.80000000006265 4.9 0  -10.6000000000637 4.9 0  -10.40000000006475 4.9 0  -10.2000000000658 4.9 0  -10.00000000006684 4.9 0  -9.800000000067891 4.9 0  -9.60000000006894 4.9 0  -9.400000000069989 4.9 0  -9.200000000070727 4.9 0  -9.00000000007142 4.9 0  -8.800000000071787 4.9 0  -8.600000000072125 4.9 0  -8.400000000072467 4.9 0  -8.200000000072805 4.9 0  -8.000000000073143 4.9 0  -7.800000000073481 4.9 0  -7.60000000007382 4.9 0  -7.400000000074154 4.9 0  -7.200000000074493 4.9 0  -7.000000000074831 4.9 0  -6.800000000075173 4.9 0  -6.600000000075511 4.9 0  -6.400000000075849 4.9 0  -6.200000000076187 4.9 0  -6.000000000076525 4.9 0  -5.800000000076867 4.9 0  -5.600000000077205 4.9 0  -5.400000000077544 4.9 0  -5.200000000077882 4.9 0  -5.00000000007822 4.9 0  -4.800000000078558 4.9 0  -4.600000000078897 4.9 0  -4.400000000079235 4.9 0  -4.200000000079573 4.9 0  -4.000000000079908 4.9 0  -3.800000000080246 4.9 0  -3.600000000080588 4.9 0  -3.400000000080926 4.9 0  -3.200000000081264 4.9 0  -3.000000000081606 4.9 0  -2.800000000081944 4.9 0  -2.600000000082282 4.9 0  -2.40000000008262 4.9 0  -2.200000000082959 4.9 0  -2.000000000083297 4.9 0  -1.800000000083635 4.9 0  -1.600000000083973 4.9 0  -1.400000000084312 4.9 0  -1.20000000008465 4.9 0  -1.000000000084988 4.9 0  -0.8000000000853262 4.9 0  -0.6000000000856645 4.9 0  -0.4000000000860027 4.9 0  -0.2000000000863409 4.9 0  -8.667910833537462e-11 4.9 0  0.1999999999129827 4.9 0  0.3999999999126409 4.9 0  0.5999999999123027 4.9 0  0.7999999999119716 4.9 0  0.9999999999116262 4.9 0  1.199999999911295 4.9 0  1.39999999991095 4.9 0  1.599999999910619 4.9 0  1.799999999910273 4.9 0  1.999999999909939 4.9 0  2.199999999909597 4.9 0  2.399999999909262 4.9 0  2.599999999908921 4.9 0  2.799999999908582 4.9 0  2.999999999908244 4.9 0  3.199999999907906 4.9 0  3.399999999907564 4.9 0  3.599999999907226 4.9 0  3.799999999906888 4.9 0  3.999999999906549 4.9 0  4.199999999906218 4.9 0  4.399999999905873 4.9 0  4.599999999905542 4.9 0  4.799999999905197 4.9 0  4.999999999904865 4.9 0  5.19999999990452 4.9 0  5.399999999904182 4.9 0  5.599999999903844 4.9 0  5.799999999903505 4.9 0  5.999999999903167 4.9 0  6.199999999902829 4.9 0  6.399999999902491 4.9 0  6.599999999902153 4.9 0  6.799999999902379 4.9 0  6.999999999902752 4.9 0  7.199999999903724 4.9 0  7.399999999904807 4.9 0  7.59999999990589 4.9 0  7.799999999906966 4.9 0  7.999999999908056 4.9 0  8.199999999909132 4.9 0  8.399999999910214 4.9 0  8.59999999991129 4.9 0  8.79999999991238 4.9 0  8.999999999913456 4.9 0  9.199999999914539 4.9 0  9.399999999915622 4.9 0  9.599999999916704 4.9 0  9.79999999991778 4.9 0  9.99999999991887 4.9 0  10.19999999991995 4.9 0  10.39999999992103 4.9 0  10.59999999992212 4.9 0  10.79999999992319 4.9 0  10.99999999992428 4.9 0  11.19999999992536 4.9 0  11.39999999992644 4.9 0  11.59999999992752 4.9 0  11.7999999999286 4.9 0  11.99999999992968 4.9 0  12.19999999993077 4.9 0  12.39999999993184 4.9 0  12.59999999993293 4.9 0  12.79999999993401 4.9 0  12.99999999993509 4.9 0  13.19999999993617 4.9 0  13.39999999993726 4.9 0  13.59999999993834 4.9 0  13.79999999993942 4.9 0  13.99999999994051 4.9 0  14.19999999994158 4.9 0  14.39999999994266 4.9 0  14.59999999994375 4.9 0  14.79999999994483 4.9 0  14.99999999994591 4.9 0  15.199999999947 4.9 0  15.39999999994807 4.9 0  15.59999999994915 4.9 0  15.79999999995024 4.9 0  15.99999999995132 4.9 0  16.1999999999524 4.9 0  16.39999999995349 4.9 0  16.59999999995456 4.9 0  16.79999999995565 4.9 0  16.99999999995674 4.9 0  17.19999999995781 4.9 0  17.39999999995889 4.9 0  17.59999999995997 4.9 0  17.79999999996106 4.9 0  17.99999999996214 4.9 0  18.19999999996322 4.9 0  18.3999999999643 4.9 0  18.59999999996538 4.9 0  18.79999999996646 4.9 0  18.99999999996755 4.9 0  19.19999999996863 4.9 0  19.39999999996971 4.9 0  19.59999999997079 4.9 0  19.79999999997187 4.9 0  19.99999999997296 4.9 0  20.19999999997404 4.9 0  20.39999999997512 4.9 0  20.5999999999762 4.9 0  20.79999999997728 4.9 0  20.99999999997836 4.9 0  21.19999999997945 4.9 0  21.39999999998052 4.9 0  21.59999999998161 4.9 0  21.79999999998269 4.9 0  21.99999999998377 4.9 0  22.19999999998485 4.9 0  22.39999999998594 4.9 0  22.59999999998701 4.9 0  22.7999999999881 4.9 0  22.99999999998919 4.9 0  23.19999999999026 4.9 0  23.39999999999135 4.9 0  23.59999999999243 4.9 0  23.79999999999351 4.9 0  23.99999999999459 4.9 0  24.19999999999568 4.9 0  24.39999999999675 4.9 0  24.59999999999783 4.9 0  24.79999999999892 4.9 0  25 4.700000000000415 0  25 4.500000000000868 0  25 4.300000000001562 0  25 4.100000000001831 0  25 3.900000000002072 0  25 3.700000000002459 0  25 3.500000000003038 0  25 3.300000000003653 0  25 3.100000000004294 0  25 2.900000000004838 0  25 2.700000000005293 0  25 2.500000000005957 0  25 2.300000000006508 0  25 2.100000000007153 0  25 1.900000000007722 0  25 1.700000000008417 0  25 1.500000000008938 0  25 1.30000000000963 0  25 1.100000000010154 0  25 0.9000000000108268 0  25 0.7000000000114559 0  25 0.5000000000119762 0  25 0.3000000000126564 0  25 0.1000000000131926 0  25 -0.09999999998679243 0  25 -0.2999999999874587 0  25 -0.4999999999878586 0  25 -0.6999999999884441 0  25 -0.899999999988804 0  25 -1.099999999989427 0  25 -1.299999999989749 0  25 -1.499999999990411 0  25 -1.69999999999073 0  25 -1.899999999991396 0  25 -2.099999999991715 0  25 -2.299999999992381 0  25 -2.499999999993047 0  25 -2.699999999993714 0  25 -2.899999999994227 0  25 -3.099999999994698 0  25 -3.299999999994673 0  25 -3.499999999995339 0  25 -3.699999999996004 0  25 -3.89999999999667 0  25 -4.099999999997335 0  25 -4.299999999998002 0  25 -4.499999999998668 0  25 -4.699999999999335 0  24.80000000000034 -4.9 0  24.60000000000068 -4.9 0  24.40000000000101 -4.9 0  24.20000000000135 -4.9 0  24.00000000000169 -4.9 0  23.80000000000203 -4.9 0  23.60000000000237 -4.9 0  23.40000000000271 -4.9 0  23.20000000000304 -4.9 0  23.00000000000338 -4.9 0  22.80000000000372 -4.9 0  22.60000000000406 -4.9 0  22.40000000000439 -4.9 0  22.20000000000473 -4.9 0  22.00000000000507 -4.9 0  21.80000000000541 -4.9 0  21.60000000000575 -4.9 0  21.40000000000608 -4.9 0  21.20000000000642 -4.9 0  21.00000000000676 -4.9 0  20.8000000000071 -4.9 0  20.60000000000744 -4.9 0  20.40000000000777 -4.9 0  20.20000000000811 -4.9 0  20.00000000000845 -4.9 0  19.80000000000879 -4.9 0  19.60000000000912 -4.9 0  19.40000000000946 -4.9 0  19.2000000000098 -4.9 0  19.00000000001039 -4.9 0  18.80000000001108 -4.9 0  18.60000000001231 -4.9 0  18.40000000001371 -4.9 0  18.2000000000154 -4.9 0  18.00000000001716 -4.9 0  17.80000000001892 -4.9 0  17.60000000002067 -4.9 0  17.40000000002243 -4.9 0  17.20000000002419 -4.9 0  17.00000000002595 -4.9 0  16.80000000002771 -4.9 0  16.60000000002947 -4.9 0  16.40000000003123 -4.9 0  16.20000000003299 -4.9 0  16.00000000003472 -4.9 0  15.80000000003612 -4.9 0  15.60000000003748 -4.9 0  15.40000000003853 -4.9 0  15.20000000003958 -4.9 0  15.00000000004063 -4.9 0  14.80000000004168 -4.9 0  14.60000000004273 -4.9 0  14.40000000004377 -4.9 0  14.20000000004482 -4.9 0  14.00000000004587 -4.9 0  13.80000000004692 -4.9 0  13.60000000004797 -4.9 0  13.40000000004902 -4.9 0  13.20000000005007 -4.9 0  13.00000000005111 -4.9 0  12.80000000005216 -4.9 0  12.60000000005321 -4.9 0  12.40000000005426 -4.9 0  12.20000000005531 -4.9 0  12.00000000005636 -4.9 0  11.80000000005741 -4.9 0  11.60000000005846 -4.9 0  11.4000000000595 -4.9 0  11.20000000006055 -4.9 0  11.0000000000616 -4.9 0  10.80000000006265 -4.9 0  10.6000000000637 -4.9 0  10.40000000006475 -4.9 0  10.2000000000658 -4.9 0  10.00000000006684 -4.9 0  9.800000000067891 -4.9 0  9.60000000006894 -4.9 0  9.400000000069989 -4.9 0  9.200000000070727 -4.9 0  9.00000000007142 -4.9 0  8.800000000071787 -4.9 0  8.600000000072125 -4.9 0  8.400000000072467 -4.9 0  8.200000000072805 -4.9 0  8.000000000073143 -4.9 
[...]
<PointData  Vectors="f_7"> 
<DataArray  type="Float64"  Name="f_7"  NumberOfComponents="3" format="ascii">3.1765569369305479e-04 8.2000000000000009e-04 0.0000000000000000e+00  -3.1754308572653009e-04 8.2000000000000009e-04 0.0000000000000000e+00  0.0000000000000000e+00 0.0000000000000000e+00 0.0000000000000000e+00  0.0000000000000000e+00 0.0000000000000000e+00 0.0000000000000000e+00  4.4242543418195460e-05 4.0765321528437703e-04 0.0000000000000000e+00  -4.4961600736065214e-05 3.9630059167376661e-04 0.0000000000000000e+00  3.1270010366410249e-04 8.2000000000000009e-04 0.0000000000000000e+00  3.0771409185090590e-04 8.2000000000000009e-04 0.0000000000000000e+00  3.0270196990997298e-04 8.2000000000000009e-04 0.0000000000000000e+00  2.9760214482100290e-04 8.2000000000000009e-04 0.0000000000000000e+00  2.9247976820306697e-04 8.2000000000000009e-04 0.0000000000000000e+00  2.8729177939690261e-04 8.2000000000000009e-04 0.0000000000000000e+00  2.8207348504540676e-04 8.2000000000000009e-04 0.0000000000000000e+00  2.7679904719050323e-04 8.2000000000000009e-04 0.0000000000000000e+00  2.7150938193554777e-04 8.2000000000000009e-04 0.0000000000000000e+00  2.6617069161335386e-04 8.2000000000000009e-04 0.0000000000000000e+00  2.6080247581143065e-04 8.2000000000000009e-04 0.0000000000000000e+00  2.5542741758320371e-04 8.2000000000000009e-04 0.0000000000000000e+00  2.4999502515492082e-04 8.2000000000000009e-04 0.0000000000000000e+00  2.4456045598366814e-04 8.2000000000000009e-04 0.0000000000000000e+00  2.3911501577143061e-04 8.2000000000000009e-04 0.0000000000000000e+00  2.3366130287006111e-04 8.2000000000000009e-04 0.0000000000000000e+00  2.2816719352114316e-04 8.2000000000000009e-04 0.0000000000000000e+00  2.2268038664333603e-04 8.2000000000000009e-04 0.0000000000000000e+00  2.1719994466627576e-04 8.2000000000000009e-04 0.0000000000000000e+00  2.1169314922601858e-04 8.2000000000000009e-04 0.0000000000000000e+00  2.0619349187635553e-04 8.2000000000000009e-04 0.0000000000000000e+00  2.0069730309099122e-04 8.2000000000000009e-04 0.0000000000000000e+00  1.9521101516631532e-04 8.2000000000000009e-04 0.0000000000000000e+00  1.8973763203726697e-04 8.2000000000000009e-04 0.0000000000000000e+00  1.8424310985831315e-04 8.2000000000000009e-04 0.0000000000000000e+00  1.7876522061284987e-04 8.2000000000000009e-04 0.0000000000000000e+00  1.7330257729910472e-04 8.2000000000000009e-04 0.0000000000000000e+00  1.6784435610714846e-04 8.2000000000000009e-04 0.0000000000000000e+00  1.6239646692125360e-04 8.2000000000000009e-04 0.0000000000000000e+00  1.5696006465550018e-04 8.2000000000000009e-04 0.0000000000000000e+00  1.5152755021398021e-04 8.2000000000000009e-04 0.0000000000000000e+00  1.4610471446614329e-04 8.2000000000000009e-04 0.0000000000000000e+00  1.4069255100075768e-04 8.2000000000000009e-04 0.0000000000000000e+00  1.3529140436212552e-04 8.2000000000000009e-04 0.0000000000000000e+00  1.2988202710371091e-04 8.2000000000000009e-04 0.0000000000000000e+00  1.2448317036296681e-04 8.2000000000000009e-04 0.0000000000000000e+00  1.1908337677598584e-04 8.2000000000000009e-04 0.0000000000000000e+00  1.1368579852392306e-04 8.2000000000000009e-04 0.0000000000000000e+00  1.0828031719884700e-04 8.2000000000000009e-04 0.0000000000000000e+00  1.0287155226138350e-04 8.2000000000000009e-04 0.0000000000000000e+00  9.7455869277499654e-05 8.2000000000000009e-04 0.0000000000000000e+00  9.2027399660112843e-05 8.2000000000000009e-04 0.0000000000000000e+00  8.6582742049356456e-05 8.2000000000000009e-04 0.0000000000000000e+00  8.1119759328418306e-05 8.2000000000000009e-04 0.0000000000000000e+00  7.5633681250394691e-05 8.2000000000000009e-04 0.0000000000000000e+00  7.0121816833464327e-05 8.2000000000000009e-04 0.0000000000000000e+00  6.4583168064162740e-05 8.2000000000000009e-04 0.0000000000000000e+00  5.9008203310364795e-05 8.2000000000000009e-04 0.0000000000000000e+00  5.3394471579780336e-05 8.2000000000000009e-04 0.0000000000000000e+00  4.7746397901312593e-05 8.2000000000000009e-04 0.0000000000000000e+00  4.2052920720193273e-05 8.2000000000000009e-04 0.0000000000000000e+00  3.6316339221727086e-05 8.2000000000000009e-04 0.0000000000000000e+00  3.0534324294320628e-05 8.2000000000000009e-04 0.0000000000000000e+00  2.4689319726349553e-05 8.2000000000000009e-04 0.0000000000000000e+00  1.8821303413962352e-05 8.2000000000000009e-04 0.0000000000000000e+00  1.2901847927169544e-05 8.2000000000000009e-04 0.0000000000000000e+00  6.9403912984240798e-06 8.2000000000000009e-04 0.0000000000000000e+00  9.3583102243080973e-07 8.2000000000000009e-04 0.0000000000000000e+00  -5.0915344476528028e-06 8.2000000000000009e-04 0.0000000000000000e+00  -1.1150694278289441e-05 8.2000000000000009e-04 0.0000000000000000e+00  -1.7181860242617107e-05 8.2000000000000009e-04 0.0000000000000000e+00  -2.3211968736381093e-05 8.2000000000000009e-04 0.0000000000000000e+00  -2.9212521242293218e-05 8.2000000000000009e-04 0.0000000000000000e+00  -3.5172938146748371e-05 8.2000000000000009e-04 0.0000000000000000e+00  -4.1066146041327668e-05 8.2000000000000009e-04 0.0000000000000000e+00  -4.6816419238963153e-05 8.2000000000000009e-04 0.0000000000000000e+00  -5.2422899364483400e-05 8.2000000000000009e-04 0.0000000000000000e+00  -5.7803877860182667e-05 8.2000000000000009e-04 0.0000000000000000e+00  -6.3012821739803236e-05 8.2000000000000009e-04 0.0000000000000000e+00  -6.8030280152589113e-05 8.2000000000000009e-04 0.0000000000000000e+00  -7.2721130674774235e-05 8.2000000000000009e-04 0.0000000000000000e+00  -7.7021776409748362e-05 8.2000000000000009e-04 0.0000000000000000e+00  -8.0971989744726302e-05 8.2000000000000009e-04 0.0000000000000000e+00  -8.4612058550137607e-05 8.2000000000000009e-04 0.0000000000000000e+00  -8.7735970309599378e-05 8.2000000000000009e-04 0.0000000000000000e+00  -9.0496255838338913e-05 8.2000000000000009e-04 0.0000000000000000e+00  -9.2795285289424092e-05 8.2000000000000009e-04 0.0000000000000000e+00  -9.4592984841973521e-05 8.2000000000000009e-04 0.0000000000000000e+00  -9.5958231316837340e-05 8.2000000000000009e-04 0.0000000000000000e+00  -9.6908428838915294e-05 8.2000000000000009e-04 0.0000000000000000e+00  -9.7414089668798739e-05 8.2000000000000009e-04 0.0000000000000000e+00  -9.7489410566191397e-05 8.2000000000000009e-04 0.0000000000000000e+00  -9.7153437877147190e-05 8.2000000000000009e-04 0.0000000000000000e+00  -9.6441555083560043e-05 8.2000000000000009e-04 0.0000000000000000e+00  -9.5433281051306623e-05 8.2000000000000009e-04 0.0000000000000000e+00  -9.4140207756280498e-05 8.2000000000000009e-04 0.0000000000000000e+00  -9.2535143117282803e-05 8.2000000000000009e-04 0.0000000000000000e+00  -9.0665247742644203e-05 8.2000000000000009e-04 0.0000000000000000e+00  -8.8630525990388747e-05 8.2000000000000009e-04 0.0000000000000000e+00  -8.6422824064589197e-05 8.2000000000000009e-04 0.0000000000000000e+00  -8.4069251150296927e-05 8.2000000000000009e-04 0.0000000000000000e+00  -8.1550510616289502e-05 8.2000000000000009e-04 0.0000000000000000e+00  -7.8952862510465189e-05 8.2000000000000009e-04 0.0000000000000000e+00  -7.6278854009694509e-05 8.2000000000000009e-04 0.0000000000000000e+00  -7.3558994302924151e-05 8.2000000000000009e-04 0.0000000000000000e+00  -7.0768069004205437e-05 8.2000000000000009e-04 0.0000000000000000e+00  -6.7971518601732538e-05 8.2000000000000009e-04 0.0000000000000000e+00  -6.5168680030233713e-05 8.2000000000000009e-04 0.0000000000000000e+00  -6.2360122550493753e-05 8.2000000000000009e-04 0.0000000000000000e+00  -5.9560191871783536e-05 8.2000000000000009e-04 0.0000000000000000e+00  -5.6784735824084136e-05 8.2000000000000009e-04 0.0000000000000000e+00  -5.4040764835844856e-05 8.2000000000000009e-04 0.0000000000000000e+00  -5.1303300439240950e-05 8.2000000000000009e-04 0.0000000000000000e+00  -4.8613686515942920e-05 8.2000000000000009e-04 0.0000000000000000e+00  -4.5964226188015565e-05 8.2000000000000009e-04 0.0000000000000000e+00  -4.3358480642390296e-05 8.2000000000000009e-04 0.0000000000000000e+00  -4.0798855828947639e-05 8.2000000000000009e-04 0.0000000000000000e+00  -3.8274396431569158e-05 8.2000000000000009e-04 0.0000000000000000e+00  -3.5795515067434957e-05 8.2000000000000009e-04 0.0000000000000000e+00  -3.3362225040368281e-05 8.2000000000000009e-04 0.0000000000000000e+00  -3.0970428256259302e-05 8.2000000000000009e-04 0.0000000000000000e+00  -2.8621275700826853e-05 8.2000000000000009e-04 0.0000000000000000e+00  -2.6301039272505625e-05 8.2000000000000009e-04 0.0000000000000000e+00  -2.4021542082370700e-05 8.2000000000000009e-04 0.0000000000000000e+00  -2.1773754547241874e-05 8.2000000000000009e-04 0.0000000000000000e+00  -1.9559370136803128e-05 8.2000000000000009e-04 0.0000000000000000e+00  -1.7371531483949563e-05 8.2000000000000009e-04 0.0000000000000000e+00  -1.5211342795614303e-05 8.2000000000000009e-04 0.0000000000000000e+00  -1.3074429509541904e-05 8.2000000000000009e-04 0.0000000000000000e+00  -1.0957915816816577e-05 8.2000000000000009e-04 0.0000000000000000e+00  -8.8598845593614536e-06 8.2000000000000009e-04 0.0000000000000000e+00  -6.7770968300784001e-06 8.2000000000000009e-04 0.0000000000000000e+00  -4.7063196519102567e-06 8.2000000000000009e-04 0.0000000000000000e+00  -2.6437199210999638e-06 8.2000000000000009e-04 0.0000000000000000e+00  -5.8835048512164125e-07 8.2000000000000009e-04 0.0000000000000000e+00  1.4626227312864385e-06 8.2000000000000009e-04 0.0000000000000000e+00  3.5137172903051154e-06 8.2000000000000009e-04 0.0000000000000000e+00  5.5667426850585013e-06 8.2000000000000009e-04 0.0000000000000000e+00  7.6254599314953251e-06 8.2000000000000009e-04 0.0000000000000000e+00  9.6914238606819596e-06 8.2000000000000009e-04 0.0000000000000000e+00  1.1769685902386043e-05 8.2000000000000009e-04 0.0000000000000000e+00  1.3863369466577725e-05 8.2000000000000009e-04 0.0000000000000000e+00  1.5977195212800334e-05 8.2000000000000009e-04 0.0000000000000000e+00  1.8113559354074517e-05 8.2000000000000009e-04 0.0000000000000000e+00  2.0271342989207924e-05 8.2000000000000009e-04 0.0000000000000000e+00  2.2458338645342339e-05 8.2000000000000009e-04 0.0000000000000000e+00  2.4677595259524954e-05 8.2000000000000009e-04 0.0000000000000000e+00  2.6931888312088770e-05 8.2000000000000009e-04 0.0000000000000000e+00  2.9223194960698943e-05 8.2000000000000009e-04 0.0000000000000000e+00  3.1556292298623193e-05 8.2000000000000009e-04 0.0000000000000000e+00  3.3928330551510200e-05 8.2000000000000009e-04 0.0000000000000000e+00  3.6349048425049730e-05 8.2000000000000009e-04 0.0000000000000000e+00  3.8817470479395302e-05 8.2000000000000009e-04 0.0000000000000000e+00  4.1322194333437731e-05 8.2000000000000009e-04 0.0000000000000000e+00  4.3880712271474589e-05 8.2000000000000009e-04 0.0000000000000000e+00  4.6486901817218905e-05 8.2000000000000009e-04 0.0000000000000000e+00  4.9136676978732741e-05 8.2000000000000009e-04 0.0000000000000000e+00  5.1830804046144704e-05 8.2000000000000009e-04 0.0000000000000000e+00  5.4561872579789682e-05 8.2000000000000009e-04 0.0000000000000000e+00  5.7352040345122875e-05 8.2000000000000009e-04 0.0000000000000000e+00  6.0143590506443680e-05 8.2000000000000009e-04 0.0000000000000000e+00  6.2965853901176185e-05 8.2000000000000009e-04 0.0000000000000000e+00  6.5808260971903312e-05 8.2000000000000009e-04 0.0000000000000000e+00  6.8663594029376053e-05 8.2000000000000009e-04 0.0000000000000000e+00  7.1489753695986460e-05 8.2000000000000009e-04 0.0000000000000000e+00  7.4301195330489324e-05 8.2000000000000009e-04 0.0000000000000000e+00  7.7067429786440933e-05 8.2000000000000009e-04 0.0000000000000000e+00  7.9775293247952764e-05 8.2000000000000009e-04 0.0000000000000000e+00  8.2410909977004968e-05 8.2000000000000009e-04 0.0000000000000000e+00  8.4898771617516531e-05 8.2000000000000009e-04 0.0000000000000000e+00  8.7247870406488584e-05 8.2000000000000009e-04 0.0000000000000000e+00  8.9396806279311297e-05 8.2000000000000009e-04 0.0000000000000000e+00  9.1409878627898524e-05 8.2000000000000009e-04 0.0000000000000000e+00  9.3152827595995822e-05 8.2000000000000009e-04 0.0000000000000000e+00  9.4605187337044999e-05 8.2000000000000009e-04 0.0000000000000000e+00  9.5791906236644136e-05 8.2000000000000009e-04 0.0000000000000000e+00  9.6587172523488065e-05 8.2000000000000009e-04 0.0000000000000000e+00  9.7122272554191059e-05 8.2000000000000009e-04 0.0000000000000000e+00  9.7241584630690931e-05 8.2000000000000009e-04 0.0000000000000000e+00  9.6869726573837767e-05 8.2000000000000009e-04 0.0000000000000000e+00  9.6021950122960961e-05 8.2000000000000009e-04 0.0000000000000000e+00  9.4764743815050286e-05 8.2000000000000009e-04 0.0000000000000000e+00  9.3014285045753942e-05 8.2000000000000009e-04 0.0000000000000000e+00  9.0777192579796255e-05 8.2000000000000009e-04 0.0000000000000000e+00  8.8105879822587246e-05 8.2000000000000009e-04 0.0000000000000000e+00  8.4951678251637451e-05 8.2000000000000009e-04 0.0000000000000000e+00  8.1533008279554349e-05 8.2000000000000009e-04 0.0000000000000000e+00  7.7562452711568876e-05 8.2000000000000009e-04 0.0000000000000000e+00  7.3242743107179985e-05 8.2000000000000009e-04 0.0000000000000000e+00  6.8595125448066367e-05 8.2000000000000009e-04 0.0000000000000000e+00  6.3636539150570352e-05 8.2000000000000009e-04 0.0000000000000000e+00  5.8453769938880492e-05 8.2000000000000009e-04 0.0000000000000000e+00  5.2996624647102637e-05 8.2000000000000009e-04 0.0000000000000000e+00  4.7398282894375022e-05 8.2000000000000009e-04 0.0000000000000000e+00  4.1612451922253885e-05 8.2000000000000009e-04 0.0000000000000000e+00  3.5729853532787183e-05 8.2000000000000009e-04 0.0000000000000000e+00  2.9768443743569630e-05 8.2000000000000009e-04 0.0000000000000000e+00  2.3756984813139702e-05 8.2000000000000009e-04 0.0000000000000000e+00  1.7686844529230019e-05 8.2000000000000009e-04 0.0000000000000000e+00  1.1622403368824639e-05 8.2000000000000009e-04 0.0000000000000000e+00  5.5533109556910263e-06 8.2000000000000009e-04 0.0000000000000000e+00  -4.9482918092105291e-07 8.2000000000000009e-04 0.0000000000000000e+00  -6.5149208222767617e-06 8.2000000000000009e-04 0.0000000000000000e+00  -1.2498389868296654e-05 8.2000000000000009e-04 0.0000000000000000e+00  -1.8441028506333889e-05 8.2000000000000009e-04 0.0000000000000000e+00  -2.4337390159807237e-05 8.2000000000000009e-04 0.0000000000000000e+00  -3.0182883168454638e-05 8.2000000000000009e-04 0.0000000000000000e+00  -3.5990488014432663e-05 8.2000000000000009e-04 0.0000000000000000e+00  -4.1744749676099091e-05 8.2000000000000009e-04 0.0000000000000000e+00  -4.7448661709367053e-05 8.2000000000000009e-04 0.0000000000000000e+00  -5.3117788465178726e-05 8.2000000000000009e-04 0.0000000000000000e+00  -5.8739412891142413e-05 8.2000000000000009e-04 0.0000000000000000e+00  -6.4327090771202169e-05 8.2000000000000009e-04 0.0000000000000000e+00  -6.9879935436990373e-05 8.2000000000000009e-04 0.0000000000000000e+00  -7.5402973234485062e-05 8.2000000000000009e-04 0.0000000000000000e+00  -8.0899037962730736e-05 8.2000000000000009e-04 0.0000000000000000e+00  -8.6368697406089229e-05 8.2000000000000009e-04 0.0000000000000000e+00  -9.1821290680124895e-05 8.2000000000000009e-04 0.0000000000000000e+00  -9.7258749780860509e-05 8.2000000000000009e-04 0.0000000000000000e+00  -1.0268487244162767e-04 8.2000000000000009e-04 0.0000000000000000e+00  -1.0810140354388982e-04 8.2000000000000009e-04 0.0000000000000000e+00  -1.1350640136817774e-04 8.2000000000000009e-04 0.0000000000000000e+00  -1.1890993449216507e-04 8.2000000000000009e-04 0.0000000000000000e+00  -1.2431448086248461e-04 8.2000000000000009e-04 0.0000000000000000e+00  -1.2972371479542415e-04 8.2000000000000009e-04 0.0000000000000000e+00  -1.3512500986830180e-04 8.2000000000000009e-04 0.0000000000000000e+00  -1.4053702254553292e-04 8.2000000000000009e-04 0.0000000000000000e+00  -1.4595896692287821e-04 8.2000000000000009e-04 0.0000000000000000e+00  -1.5137816230395568e-04 8.2000000000000009e-04 0.0000000000000000e+00  -1.5681037312082990e-04 8.2000000000000009e-04 0.0000000000000000e+00  -1.6225306691613928e-04 8.2000000000000009e-04 0.0000000000000000e+00  -1.6770784019237855e-04 8.2000000000000009e-04 0.0000000000000000e+00  -1.7316849814858959e-04 8.2000000000000009e-04 0.0000000000000000e+00  -1.7863183120007373e-04 8.2000000000000009e-04 0.0000000000000000e+00  -1.8410580528044045e-04 8.2000000000000009e-04 0.0000000000000000e+00  -1.8959211208448564e-04 8.2000000000000009e-04 0.0000000000000000e+00  -1.9508057813245839e-04 8.2000000000000009e-04 0.0000000000000000e+00  -2.0057261994938349e-04 8.2000000000000009e-04 0.0000000000000000e+00  -2.0606789615950754e-04 8.2000000000000009e-04 0.0000000000000000e+00  -2.1156866507169295e-04 8.2000000000000009e-04 0.0000000000000000e+00  -2.1706205666353800e-04 8.2000000000000009e-04 0.0000000000000000e+00  -2.2255870569514241e-04 8.2000000000000009e-04 0.0000000000000000e+00  -2.2804064207190914e-04 8.2000000000000009e-04 0.0000000000000000e+00  -2.3352198212887838e-04 8.2000000000000009e-04 0.0000000000000000e+00  -2.3899361744011331e-04 8.2000000000000009e-04 0.0000000000000000e+00  -2.4444318416535241e-04 8.2000000000000009e-04 0.0000000000000000e+00  -2.4987802085794122e-04 8.2000000000000009e-04 0.0000000000000000e+00  -2.5529471240407533e-04 8.2000000000000009e-04 0.0000000000000000e+00  -2.6068606785997159e-04 8.2000000000000009e-04 0.0000000000000000e+00  -2.6604560766416250e-04 8.2000000000000009e-04 0.0000000000000000e+00  -2.7138933935789695e-04 8.2000000000000009e-04 0.0000000000000000e+00  -2.7669151778526510e-04 8.2000000000000009e-04 0.0000000000000000e+00  -2.8195550046877083e-04 8.2000000000000009e-04 0.0000000000000000e+00  -2.8717902308232970e-04 8.2000000000000009e-04 0.0000000000000000e+00  -2.9235379242050684e-04 8.2000000000000009e-04 0.0000000000000000e+00  -2.9748714578564515e-04 8.2000000000000009e-04 0.0000000000000000e+00  -3.0257913070796971e-04 8.2000000000000009e-04 0.0000000000000000e+00  -3.0759882429460351e-04 8.2000000000000009e-04 0.0000000000000000e+00  -3.1258498061828652e-04 8.2000000000000009e-04 0.0000000000000000e+00  -3.1744899053047406e-04 8.0528107531647921e-04 0.0000000000000000e+00  -3.1718758877964643e-04 7.9055984162622512e-04 0.0000000000000000e+00  -3.1681918325007845e-04 7.7583649340694292e-04 0.0000000000000000e+00  -3.1624842697123277e-04 7.6111098522558434e-04 0.0000000000000000e+00  -3.1553399645549288e-04 7.4640396743706858e-04 0.0000000000000000e+00  -3.1462462130474469e-04 7.3166323563156126e-04 0.0000000000000000e+00  -3.1357260190794853e-04 7.1694989403742085e-04 0.0000000000000000e+00  -3.1235971249834598e-04 7.0221164479591892e-04 0.0000000000000000e+00  -3.1096179698251325e-04 6.8747491961537483e-04 0.0000000000000000e+00  -3.0939080845188610e-04 6.7275724208955105e-04 0.0000000000000000e+00  -3.0764734472368691e-04 6.5800564540919747e-04 0.0000000000000000e+00  -3.0572377904040867e-04 6.4326024494754845e-04 0.0000000000000000e+00  -3.0362366306983433e-04 6.2849281882214586e-04 0.0000000000000000e+00  -3.0132659315637914e-04 6.1375270176393187e-04 0.0000000000000000e+00  -2.9885115542994831e-04 5.9896050322907782e-04 0.0000000000000000e+00  -2.9617152042728137e-04 5.8414748344259220e-04 0.0000000000000000e+00  -2.9328988485101453e-04 5.6935304405326167e-04 0.0000000000000000e+00  -2.9020426162894145e-04 5.5450792765827060e-04 0.0000000000000000e+00  -2.8690028851392616e-04 5.3967616405033939e-04 0.0000000000000000e+00  -2.8337955983266384e-04 5.2480609681627977e-04 0.0000000000000000e+00  -2.7964193147589610e-04 5.0986877535603276e-04 0.0000000000000000e+00  -2.7565917159257054e-04 4.9495924786988499e-04 0.0000000000000000e+00  -2.7144313609258464e-04 4.7996321826539033e-04 0.0000000000000000e+00  -2.6696266830385966e-04 4.6495675556323940e-04 0.0000000000000000e+00  -2.6224700419315181e-04 4.4986949204834075e-04 0.0000000000000000e+00  -2.5723870984085007e-04 4.3477784676125135e-04 0.0000000000000000e+00  -2.5198083155220151e-04 4.1955358712276157e-04 0.0000000000000000e+00  