<?xml version="1.0"?>
<VTKFile type="UnstructuredGrid"  version="0.1"  >
<UnstructuredGrid>
<Piece  NumberOfPoints="16512" NumberOfCells="32424">
<Points>
<DataArray  type="Float64"  NumberOfComponents="3"  format="ascii">-25 4.9 0  25 4.9 0  25 -4.9 0  -25 -4.9 0  -10 0 0  10 0 0  -24.80000000000034 4.9 0  -24.60000000000068 4.9 0  -24.40000000000101 4.9 0  -24.20000000000135 4.9 0  -24.00000000000169 4.9 0  -23.80000000000203 4.9 0  -23.60000000000237 4.9 0  -23.40000000000271 4.9 0  -23.20000000000304 4.9 0  -23.00000000000338 4.9 0  -22.80000000000372 4.9 0  -22.60000000000406 4.9 0  -22.40000000000439 4.9 0  -22.20000000000473 4.9 0  -22.00000000000507 4.9 0  -21.80000000000541 4.9 0  -21.60000000000575 4.9 0  -21.40000000000608 4.9 0  -21.20000000000642 4.9 0  -21.00000000000676 4.9 0  -20.8000000000071 4.9 0  -20.60000000000744 4.9 0  -20.40000000000777 4.9 0  -20.20000000000811 4.9 0  -20.00000000000845 4.9 0  -19.80000000000879 4.9 0  -19.60000000000912 4.9 0  -19.40000000000946 4.9 0  -19.2000000000098 4.9 0  -19.00000000001039 4.9 0  -18.80000000001108 4.9 0  -18.60000000001231 4.9 0  -18.40000000001371 4.9 0  -18.2000000000154 4.9 0  -18.00000000001716 4.9 0  -17.80000000001892 4.9 0  -17.60000000002067 4.9 0  -17.40000000002243 4.9 0  -17.20000000002419 4.9 0  -17.00000000002595 4.9 0  -16.80000000002771 4.9 0  -16.60000000002947 4.9 0  -16.40000000003123 4.9 0  -16.20000000003299 4.9 0  -16.00000000003472 4.9 0  -15.80000000003612 4.9 0  -15.60000000003748 4.9 0  -15.40000000003853 4.9 0  -15.20000000003958 4.9 0  -15.00000000004063 4.9 0  -14.80000000004168 4.9 0  -14.60000000004273 4.9 0  -14.40000000004377 4.9 0  -14.20000000004482 4.9 0  -14.00000000004587 4.9 0  -13.80000000004692 4.9 0  -13.60000000004797 4.9 0  -13.40000000004902 4.9 0  -13.20000000005007 4.9 0  -13.00000000005111 4.9 0  -12.80000000005216 4.9 0  -12.60000000005321 4.9 0  -12.40000000005426 4.9 0  -12.20000000005531 4.9 0  -12.00000000005636 4.9 0  -11.80000000005741 4.9 0  -11.60000000005846 4.9 0  -11.4000000000595 4.9 0  -11.20000000006055 4.9 0  -11.0000000000616 4.9 0  -10.80000000006265 4.9 0  -10.6000000000637 4.9 0  -10.40000000006475 4.9 0  -10.2000000000658 4.9 0  -10.00000000006684 4.9 0  -9.800000000067891 4.9 0  -9.60000000006894 4.9 0  -9.400000000069989 4.9 0  -9.200000000070727 4.9 0  -9.00000000007142 4.9 0  -8.800000000071787 4.9 0  -8.600000000072125 4.9 0  -8.400000000072467 4.9 0  -8.200000000072805 4.9 0  -8.000000000073143 4.9 0  -7.800000000073481 4.9 0  -7.60000000007382 4.9 0  -7.400000000074154 4.9 0  -7.200000000074493 4.9 0  -7.000000000074831 4.9 0  -6.800000000075173 4.9 0  -6.600000000075511 4.9 0  -6.400000000075849 4.9 0  -6.200000000076187 4.9 0  -6.000000000076525 4.9 0  -5.800000000076867 4.9 0  -5.600000000077205 4.9 0  -5.400000000077544 4.9 0  -5.200000000077882 4.9 0  -5.00000000007822 4.9 0  -4.800000000078558 4.9 0  -4.600000000078897 4.9 0  -4.400000000079235 4.9 0  -4.200000000079573 4.9 0  -4.000000000079908 4.9 0  -3.800000000080246 4.9 0  -3.600000000080588 4.9 0  -3.400000000080926 4.9 0  -3.200000000081264 4.9 0  -3.000000000081606 4.9 0  -2.800000000081944 4.9 0  -2.600000000082282 4.9 0  -2.40000000008262 4.9 0  -2.200000000082959 4.9 0  -2.000000000083297 4.9 0  -1.800000000083635 4.9 0  -1.600000000083973 4.9 0  -1.400000000084312 4.9 0  -1.20000000008465 4.9 0  -1.000000000084988 4.9 0  -0.8000000000853262 4.9 0  -0.6000000000856645 4.9 0  -0.4000000000860027 4.9 0  -0.2000000000863409 4.9 0  -8.667910833537462e-11 4.9 0  0.1999999999129827 4.9 0  0.3999999999126409 4.9 0  0.5999999999123027 4.9 0  0.7999999999119716 4.9 0  0.9999999999116262 4.9 0  1.199999999911295 4.9 0  1.39999999991095 4.9 0  1.599999999910619 4.9 0  1.799999999910273 4.9 0  1.999999999909939 4.9 0  2.199999999909597 4.9 0  2.399999999909262 4.9 0  2.599999999908921 4.9 0  2.799999999908582 4.9 0  2.999999999908244 4.9 0  3.199999999907906 4.9 0  3.399999999907564 4.9 0  3.599999999907226 4.9 0  3.799999999906888 4.9 0  3.999999999906549 4.9 0  4.199999999906218 4.9 0  4.399999999905873 4.9 0  4.599999999905542 4.9 0  4.799999999905197 4.9 0  4.999999999904865 4.9 0  5.19999999990452 4.9 0  5.399999999904182 4.9 0  5.599999999903844 4.9 0  5.799999999903505 4.9 0  5.999999999903167 4.9 0  6.199999999902829 4.9 0  6.399999999902491 4.9 0  6.599999999902153 4.9 0  6.799999999902379 4.9 0  6.999999999902752 4.9 0  7.199999999903724 4.9 0  7.399999999904807 4.9 0  7.59999999990589 4.9 0  7.799999999906966 4.9 0  7.999999999908056 4.9 0  8.199999999909132 4.9 0  8.399999999910214 4.9 0  8.59999999991129 4.9 0  8.79999999991238 4.9 0  8.999999999913456 4.9 0  9.199999999914539 4.9 0  9.399999999915622 4.9 0  9.599999999916704 4.9 0  9.79999999991778 4.9 0  9.99999999991887 4.9 0  10.19999999991995 4.9 0  10.39999999992103 4.9 0  10.59999999992212 4.9 0  10.79999999992319 4.9 0  10.99999999992428 4.9 0  11.19999999992536 4.9 0  11.39999999992644 4.9 0  11.59999999992752 4.9 0  11.7999999999286 4.9 0  11.99999999992968 4.9 0  12.19999999993077 4.9 0  12.39999999993184 4.9 0  12.59999999993293 4.9 0  12.79999999993401 4.9 0  12.99999999993509 4.9 0  13.19999999993617 4.9 0  13.39999999993726 4.9 0  13.59999999993834 4.9 0  13.79999999993942 4.9 0  13.99999999994051 4.9 0  14.19999999994158 4.9 0  14.39999999994266 4.9 0  14.59999999994375 4.9 0  14.79999999994483 4.9 0  14.99999999994591 4.9 0  15.199999999947 4.9 0  15.39999999994807 4.9 0  15.59999999994915 4.9 0  15.79999999995024 4.9 0  15.99999999995132 4.9 0  16.1999999999524 4.9 0  16.39999999995349 4.9 0  16.59999999995456 4.9 0  16.79999999995565 4.9 0  16.99999999995674 4.9 0  17.19999999995781 4.9 0  17.39999999995889 4.9 0  17.59999999995997 4.9 0  17.79999999996106 4.9 0  17.99999999996214 4.9 0  18.19999999996322 4.9 0  18.3999999999643 4.9 0  18.59999999996538 4.9 0  18.79999999996646 4.9 0  18.99999999996755 4.9 0  19.19999999996863 4.9 0  19.39999999996971 4.9 0  19.59999999997079 4.9 0  19.79999999997187 4.9 0  19.99999999997296 4.9 0  20.19999999997404 4.9 0  20.39999999997512 4.9 0  20.5999999999762 4.9 0  20.79999999997728 4.9 0  20.99999999997836 4.9 0  21.19999999997945 4.9 0  21.39999999998052 4.9 0  21.59999999998161 4.9 0  21.79999999998269 4.9 0  21.99999999998377 4.9 0  22.19999999998485 4.9 0  22.39999999998594 4.9 0  22.59999999998701 4.9 0  22.7999999999881 4.9 0  22.99999999998919 4.9 0  23.19999999999026 4.9 0  23.39999999999135 4.9 0  23.59999999999243 4.9 0  23.79999999999351 4.9 0  23.99999999999459 4.9 0  24.19999999999568 4.9 0  24.39999999999675 4.9 0  24.59999999999783 4.9 0  24.79999999999892 4.9 0  25 4.700000000000415 0  25 4.500000000000868 0  25 4.300000000001562 0  25 4.100000000001831 0  25 3.900000000002072 0  25 3.700000000002459 0  25 3.500000000003038 0  25 3.300000000003653 0  25 3.100000000004294 0  25 2.900000000004838 0  25 2.700000000005293 0  25 2.500000000005957 0  25 2.300000000006508 0  25 2.100000000007153 0  25 1.900000000007722 0  25 1.700000000008417 0  25 1.500000000008938 0  25 1.30000000000963 0  25 1.100000000010154 0  25 0.9000000000108268 0  25 0.7000000000114559 0  25 0.5000000000119762 0  25 0.3000000000126564 0  25 0.1000000000131926 0  25 -0.09999999998679243 0  25 -0.2999999999874587 0  25 -0.4999999999878586 0  25 -0.6999999999884441 0  25 -0.899999999988804 0  25 -1.099999999989427 0  25 -1.299999999989749 0  25 -1.499999999990411 0  25 -1.69999999999073 0  25 -1.899999999991396 0  25 -2.099999999991715 0  25 -2.299999999992381 0  25 -2.499999999993047 0  25 -2.699999999993714 0  25 -2.899999999994227 0  25 -3.099999999994698 0  25 -3.299999999994673 0  25 -3.499999999995339 0  25 -3.699999999996004 0  25 -3.89999999999667 0  25 -4.099999999997335 0  25 -4.299999999998002 0  25 -4.499999999998668 0  25 -4.699999999999335 0  24.80000000000034 -4.9 0  24.60000000000068 -4.9 0  24.40000000000101 -4.9 0  24.20000000000135 -4.9 0  24.00000000000169 -4.9 0  23.80000000000203 -4.9 0  23.60000000000237 -4.9 0  23.40000000000271 -4.9 0  23.20000000000304 -4.9 0  23.00000000000338 -4.9 0  22.80000000000372 -4.9 0  22.60000000000406 -4.9 0  22.40000000000439 -4.9 0  22.20000000000473 -4.9 0  22.00000000000507 -4.9 0  21.80000000000541 -4.9 0  21.60000000000575 -4.9 0  21.40000000000608 -4.9 0  21.20000000000642 -4.9 0  21.00000000000676 -4.9 0  20.8000000000071 -4.9 0  20.60000000000744 -4.9 0  20.40000000000777 -4.9 0  20.20000000000811 -4.9 0  20.00000000000845 -4.9 0  19.80000000000879 -4.9 0  19.60000000000912 -4.9 0  19.40000000000946 -4.9 0  19.2000000000098 -4.9 0  19.00000000001039 -4.9 0  18.80000000001108 -4.9 0  18.60000000001231 -4.9 0  18.40000000001371 -4.9 0  18.2000000000154 -4.9 0  18.00000000001716 -4.9 0  17.80000000001892 -4.9 0  17.60000000002067 -4.9 0  17.40000000002243 -4.9 0  17.20000000002419 -4.9 0  17.00000000002595 -4.9 0  16.80000000002771 -4.9 0  16.60000000002947 -4.9 0  16.40000000003123 -4.9 0  16.20000000003299 -4.9 0  16.00000000003472 -4.9 0  15.80000000003612 -4.9 0  15.60000000003748 -4.9 0  15.40000000003853 -4.9 0  15.20000000003958 -4.9 0  15.00000000004063 -4.9 0  14.80000000004168 -4.9 0  14.60000000004273 -4.9 0  14.40000000004377 -4.9 0  14.20000000004482 -4.9 0  14.00000000004587 -4.9 0  13.80000000004692 -4.9 0  13.60000000004797 -4.9 0  13.40000000004902 -4.9 0  13.20000000005007 -4.9 0  13.00000000005111 -4.9 0  12.80000000005216 -4.9 0  12.60000000005321 -4.9 0  12.40000000005426 -4.9 0  12.20000000005531 -4.9 0  12.00000000005636 -4.9 0  11.80000000005741 -4.9 0  11.60000000005846 -4.9 0  11.4000000000595 -4.9 0  11.20000000006055 -4.9 0  11.0000000000616 -4.9 0  10.80000000006265 -4.9 0  10.6000000000637 -4.9 0  10.40000000006475 -4.9 0  10.2000000000658 -4.9 0  10.00000000006684 -4.9 0  9.800000000067891 -4.9 0  9.60000000006894 -4.9 0  9.400000000069989 -4.9 0  9.200000000070727 -4.9 0  9.00000000007142 -4.9 0  8.800000000071787 -4.9 0  8.600000000072125 -4.9 0  8.400000000072467 -4.9 0  8.200000000072805 -4.9 0  8.000000000073143 -4.9 
[...]
<PointData  Vectors="f_7"> 
<DataArray  type="Float64"  Name="f_7"  NumberOfComponents="3" format="ascii">1.9998605701914839e-04 4.7000000000000004e-04 0.0000000000000000e+00  -2.0017002268507450e-04 4.7000000000000004e-04 0.0000000000000000e+00  0.0000000000000000e+00 0.0000000000000000e+00 0.0000000000000000e+00  0.0000000000000000e+00 0.0000000000000000e+00 0.0000000000000000e+00  3.5116427036202224e-05 2.3566610259520519e-04 0.0000000000000000e+00  -3.4376296532499318e-05 2.3167369653677168e-04 0.0000000000000000e+00  1.9722283048105211e-04 4.7000000000000004e-04 0.0000000000000000e+00  1.9443953023820290e-04 4.7000000000000004e-04 0.0000000000000000e+00  1.9163927436013583e-04 4.7000000000000004e-04 0.0000000000000000e+00  1.8878093846037518e-04 4.7000000000000004e-04 0.0000000000000000e+00  1.8590978019057683e-04 4.7000000000000004e-04 0.0000000000000000e+00  1.8299656904362103e-04 4.7000000000000004e-04 0.0000000000000000e+00  1.8006630764466494e-04 4.7000000000000004e-04 0.0000000000000000e+00  1.7710213912776801e-04 4.7000000000000004e-04 0.0000000000000000e+00  1.7413118362359376e-04 4.7000000000000004e-04 0.0000000000000000e+00  1.7113197348396140e-04 4.7000000000000004e-04 0.0000000000000000e+00  1.6811772535367341e-04 4.7000000000000004e-04 0.0000000000000000e+00  1.6510332778730118e-04 4.7000000000000004e-04 0.0000000000000000e+00  1.6205612176653506e-04 4.7000000000000004e-04 0.0000000000000000e+00  1.5901264111997391e-04 4.7000000000000004e-04 0.0000000000000000e+00  1.5596701615852902e-04 4.7000000000000004e-04 0.0000000000000000e+00  1.5292169592476907e-04 4.7000000000000004e-04 0.0000000000000000e+00  1.4985560246415241e-04 4.7000000000000004e-04 0.0000000000000000e+00  1.4680111068520680e-04 4.7000000000000004e-04 0.0000000000000000e+00  1.4375622892703186e-04 4.7000000000000004e-04 0.0000000000000000e+00  1.4070105151607989e-04 4.7000000000000004e-04 0.0000000000000000e+00  1.3765790856801297e-04 4.7000000000000004e-04 0.0000000000000000e+00  1.3462405192237999e-04 4.7000000000000004e-04 0.0000000000000000e+00  1.3160445268474606e-04 4.7000000000000004e-04 0.0000000000000000e+00  1.2860075790183031e-04 4.7000000000000004e-04 0.0000000000000000e+00  1.2559026575775610e-04 4.7000000000000004e-04 0.0000000000000000e+00  1.2260013799366787e-04 4.7000000000000004e-04 0.0000000000000000e+00  1.1962865443521671e-04 4.7000000000000004e-04 0.0000000000000000e+00  1.1666898710965662e-04 4.7000000000000004e-04 0.0000000000000000e+00  1.1372542413958185e-04 4.7000000000000004e-04 0.0000000000000000e+00  1.1079970923421910e-04 4.7000000000000004e-04 0.0000000000000000e+00  1.0788704322820932e-04 4.7000000000000004e-04 0.0000000000000000e+00  1.0499196944782217e-04 4.7000000000000004e-04 0.0000000000000000e+00  1.0211448616361550e-04 4.7000000000000004e-04 0.0000000000000000e+00  9.9257342673984446e-05 4.7000000000000004e-04 0.0000000000000000e+00  9.6405052536782334e-05 4.7000000000000004e-04 0.0000000000000000e+00  9.3574639561691485e-05 4.7000000000000004e-04 0.0000000000000000e+00  9.0757469677850471e-05 4.7000000000000004e-04 0.0000000000000000e+00  8.7957903741036107e-05 4.7000000000000004e-04 0.0000000000000000e+00  8.5166322498898548e-05 4.7000000000000004e-04 0.0000000000000000e+00  8.2389634363507253e-05 4.7000000000000004e-04 0.0000000000000000e+00  7.9626210110172966e-05 4.7000000000000004e-04 0.0000000000000000e+00  7.6872688703030699e-05 4.7000000000000004e-04 0.0000000000000000e+00  7.4127728307916800e-05 4.7000000000000004e-04 0.0000000000000000e+00  7.1390339378539099e-05 4.7000000000000004e-04 0.0000000000000000e+00  6.8658550256449935e-05 4.7000000000000004e-04 0.0000000000000000e+00  6.5932234475695253e-05 4.7000000000000004e-04 0.0000000000000000e+00  6.3210053668535314e-05 4.7000000000000004e-04 0.0000000000000000e+00  6.0489570992093020e-05 4.7000000000000004e-04 0.0000000000000000e+00  5.7770100429103033e-05 4.7000000000000004e-04 0.0000000000000000e+00  5.5051384270323337e-05 4.7000000000000004e-04 0.0000000000000000e+00  5.2330434386024088e-05 4.7000000000000004e-04 0.0000000000000000e+00  4.9606094010785185e-05 4.7000000000000004e-04 0.0000000000000000e+00  4.6879641357982778e-05 4.7000000000000004e-04 0.0000000000000000e+00  4.4147143193744794e-05 4.7000000000000004e-04 0.0000000000000000e+00  4.1414757941351487e-05 4.7000000000000004e-04 0.0000000000000000e+00  3.8678489137666912e-05 4.7000000000000004e-04 0.0000000000000000e+00  3.5939742554565094e-05 4.7000000000000004e-04 0.0000000000000000e+00  3.3199556732893983e-05 4.7000000000000004e-04 0.0000000000000000e+00  3.0463421734942307e-05 4.7000000000000004e-04 0.0000000000000000e+00  2.7730356816281983e-05 4.7000000000000004e-04 0.0000000000000000e+00  2.5017346943459633e-05 4.7000000000000004e-04 0.0000000000000000e+00  2.2318127528210223e-05 4.7000000000000004e-04 0.0000000000000000e+00  1.9642140071598068e-05 4.7000000000000004e-04 0.0000000000000000e+00  1.6993615297208205e-05 4.7000000000000004e-04 0.0000000000000000e+00  1.4384252719268591e-05 4.7000000000000004e-04 0.0000000000000000e+00  1.1835107431054037e-05 4.7000000000000004e-04 0.0000000000000000e+00  9.3512290336972632e-06 4.7000000000000004e-04 0.0000000000000000e+00  6.9612930007553973e-06 4.7000000000000004e-04 0.0000000000000000e+00  4.6458815242459929e-06 4.7000000000000004e-04 0.0000000000000000e+00  2.4111722032216096e-06 4.7000000000000004e-04 0.0000000000000000e+00  3.0551358827139722e-07 4.7000000000000004e-04 0.0000000000000000e+00  -1.6487127676386942e-06 4.7000000000000004e-04 0.0000000000000000e+00  -3.4667441796255860e-06 4.7000000000000004e-04 0.0000000000000000e+00  -5.1630200169663970e-06 4.7000000000000004e-04 0.0000000000000000e+00  -6.6678378917463074e-06 4.7000000000000004e-04 0.0000000000000000e+00  -8.0339338578530695e-06 4.7000000000000004e-04 0.0000000000000000e+00  -9.2275440942613057e-06 4.7000000000000004e-04 0.0000000000000000e+00  -1.0237214789464638e-05 4.7000000000000004e-04 0.0000000000000000e+00  -1.1088572802640936e-05 4.7000000000000004e-04 0.0000000000000000e+00  -1.1789193657838221e-05 4.7000000000000004e-04 0.0000000000000000e+00  -1.2330334990463409e-05 4.7000000000000004e-04 0.0000000000000000e+00  -1.2718468383659063e-05 4.7000000000000004e-04 0.0000000000000000e+00  -1.2961828393911632e-05 4.7000000000000004e-04 0.0000000000000000e+00  -1.3074918706763266e-05 4.7000000000000004e-04 0.0000000000000000e+00  -1.3085667987673345e-05 4.7000000000000004e-04 0.0000000000000000e+00  -1.2999655373084819e-05 4.7000000000000004e-04 0.0000000000000000e+00  -1.2809961998625168e-05 4.7000000000000004e-04 0.0000000000000000e+00  -1.2534492807169418e-05 4.7000000000000004e-04 0.0000000000000000e+00  -1.2206613261388338e-05 4.7000000000000004e-04 0.0000000000000000e+00  -1.1824949328367126e-05 4.7000000000000004e-04 0.0000000000000000e+00  -1.1400239025107864e-05 4.7000000000000004e-04 0.0000000000000000e+00  -1.0928619749649457e-05 4.7000000000000004e-04 0.0000000000000000e+00  -1.0437578717817630e-05 4.7000000000000004e-04 0.0000000000000000e+00  -9.9293187613446371e-06 4.7000000000000004e-04 0.0000000000000000e+00  -9.4140709557899141e-06 4.7000000000000004e-04 0.0000000000000000e+00  -8.8871896356049907e-06 4.7000000000000004e-04 0.0000000000000000e+00  -8.3663876698932717e-06 4.7000000000000004e-04 0.0000000000000000e+00  -7.8532164273636363e-06 4.7000000000000004e-04 0.0000000000000000e+00  -7.3495540674964149e-06 4.7000000000000004e-04 0.0000000000000000e+00  -6.8594985886248356e-06 4.7000000000000004e-04 0.0000000000000000e+00  -6.3871568948853918e-06 4.7000000000000004e-04 0.0000000000000000e+00  -5.9354603129650536e-06 4.7000000000000004e-04 0.0000000000000000e+00  -5.4986925832115451e-06 4.7000000000000004e-04 0.0000000000000000e+00  -5.0861571239471659e-06 4.7000000000000004e-04 0.0000000000000000e+00  -4.6968432706714067e-06 4.7000000000000004e-04 0.0000000000000000e+00  -4.3323500298019362e-06 4.7000000000000004e-04 0.0000000000000000e+00  -3.9912995289952690e-06 4.7000000000000004e-04 0.0000000000000000e+00  -3.6726208681063167e-06 4.7000000000000004e-04 0.0000000000000000e+00  -3.3759277623535798e-06 4.7000000000000004e-04 0.0000000000000000e+00  -3.1026836742026702e-06 4.7000000000000004e-04 0.0000000000000000e+00  -2.8504363395109939e-06 4.7000000000000004e-04 0.0000000000000000e+00  -2.6180786025122615e-06 4.7000000000000004e-04 0.0000000000000000e+00  -2.4023064817838057e-06 4.7000000000000004e-04 0.0000000000000000e+00  -2.2046554845782983e-06 4.7000000000000004e-04 0.0000000000000000e+00  -2.0208192188901370e-06 4.7000000000000004e-04 0.0000000000000000e+00  -1.8516264311465912e-06 4.7000000000000004e-04 0.0000000000000000e+00  -1.6930605629366018e-06 4.7000000000000004e-04 0.0000000000000000e+00  -1.5449468929951683e-06 4.7000000000000004e-04 0.0000000000000000e+00  -1.4048220101828984e-06 4.7000000000000004e-04 0.0000000000000000e+00  -1.2707502650173674e-06 4.7000000000000004e-04 0.0000000000000000e+00  -1.1412720919929770e-06 4.7000000000000004e-04 0.0000000000000000e+00  -1.0144362404217802e-06 4.7000000000000004e-04 0.0000000000000000e+00  -8.8777119203751202e-07 4.7000000000000004e-04 0.0000000000000000e+00  -7.6029636597329718e-07 4.7000000000000004e-04 0.0000000000000000e+00  -6.3044930992476142e-07 4.7000000000000004e-04 0.0000000000000000e+00  -4.9685339517815748e-07 4.7000000000000004e-04 0.0000000000000000e+00  -3.5617513849674893e-07 4.7000000000000004e-04 0.0000000000000000e+00  -2.0930077753951455e-07 4.7000000000000004e-04 0.0000000000000000e+00  -5.4311220877780706e-08 4.7000000000000004e-04 0.0000000000000000e+00  1.1157065422915016e-07 4.7000000000000004e-04 0.0000000000000000e+00  2.8836374759100025e-07 4.7000000000000004e-04 0.0000000000000000e+00  4.7764697202156760e-07 4.7000000000000004e-04 0.0000000000000000e+00  6.8116751148923451e-07 4.7000000000000004e-04 0.0000000000000000e+00  8.9798859111960638e-07 4.7000000000000004e-04 0.0000000000000000e+00  1.1291328905835911e-06 4.7000000000000004e-04 0.0000000000000000e+00  1.3754143602308510e-06 4.7000000000000004e-04 0.0000000000000000e+00  1.6381940260456786e-06 4.7000000000000004e-04 0.0000000000000000e+00  1.9172131052733130e-06 4.7000000000000004e-04 0.0000000000000000e+00  2.2131103761403953e-06 4.7000000000000004e-04 0.0000000000000000e+00  2.5266273935692542e-06 4.7000000000000004e-04 0.0000000000000000e+00  2.8571260570062097e-06 4.7000000000000004e-04 0.0000000000000000e+00  3.2068284456119285e-06 4.7000000000000004e-04 0.0000000000000000e+00  3.5747995051173076e-06 4.7000000000000004e-04 0.0000000000000000e+00  3.9590085976586565e-06 4.7000000000000004e-04 0.0000000000000000e+00  4.3632742507543546e-06 4.7000000000000004e-04 0.0000000000000000e+00  4.7858583266415131e-06 4.7000000000000004e-04 0.0000000000000000e+00  5.2270489904832409e-06 4.7000000000000004e-04 0.0000000000000000e+00  5.6860829124806424e-06 4.7000000000000004e-04 0.0000000000000000e+00  6.1605465056947197e-06 4.7000000000000004e-04 0.0000000000000000e+00  6.6581579540260054e-06 4.7000000000000004e-04 0.0000000000000000e+00  7.1604004690350824e-06 4.7000000000000004e-04 0.0000000000000000e+00  7.6765913646097662e-06 4.7000000000000004e-04 0.0000000000000000e+00  8.2027954328572482e-06 4.7000000000000004e-04 0.0000000000000000e+00  8.7361808107499468e-06 4.7000000000000004e-04 0.0000000000000000e+00  9.2640810120695551e-06 4.7000000000000004e-04 0.0000000000000000e+00  9.7894171711255290e-06 4.7000000000000004e-04 0.0000000000000000e+00  1.0302397590295941e-05 4.7000000000000004e-04 0.0000000000000000e+00  1.0798021852854913e-05 4.7000000000000004e-04 0.0000000000000000e+00  1.1271092907411740e-05 4.7000000000000004e-04 0.0000000000000000e+00  1.1696815682657565e-05 4.7000000000000004e-04 0.0000000000000000e+00  1.2076843368516046e-05 4.7000000000000004e-04 0.0000000000000000e+00  1.2390333708149257e-05 4.7000000000000004e-04 0.0000000000000000e+00  1.2657362878082313e-05 4.7000000000000004e-04 0.0000000000000000e+00  1.2833239671521000e-05 4.7000000000000004e-04 0.0000000000000000e+00  1.2910138313525657e-05 4.7000000000000004e-04 0.0000000000000000e+00  1.2895603733942196e-05 4.7000000000000004e-04 0.0000000000000000e+00  1.2746432717394947e-05 4.7000000000000004e-04 0.0000000000000000e+00  1.2506092643568154e-05 4.7000000000000004e-04 0.0000000000000000e+00  1.2121313724054931e-05 4.7000000000000004e-04 0.0000000000000000e+00  1.1564285552831290e-05 4.7000000000000004e-04 0.0000000000000000e+00  1.0842028186280882e-05 4.7000000000000004e-04 0.0000000000000000e+00  9.9734619802474709e-06 4.7000000000000004e-04 0.0000000000000000e+00  8.9292694476253856e-06 4.7000000000000004e-04 0.0000000000000000e+00  7.7107492782899097e-06 4.7000000000000004e-04 0.0000000000000000e+00  6.3340498941651322e-06 4.7000000000000004e-04 0.0000000000000000e+00  4.7838744290516601e-06 4.7000000000000004e-04 0.0000000000000000e+00  3.1329714848584105e-06 4.7000000000000004e-04 0.0000000000000000e+00  1.2838947505265753e-06 4.7000000000000004e-04 0.0000000000000000e+00  -6.9679353544533021e-07 4.7000000000000004e-04 0.0000000000000000e+00  -2.8013432452796079e-06 4.7000000000000004e-04 0.0000000000000000e+00  -5.0248922379869057e-06 4.7000000000000004e-04 0.0000000000000000e+00  -7.3378947918212102e-06 4.7000000000000004e-04 0.0000000000000000e+00  -9.7554873917858752e-06 4.7000000000000004e-04 0.0000000000000000e+00  -1.2234167066775597e-05 4.7000000000000004e-04 0.0000000000000000e+00  -1.4789712008354228e-05 4.7000000000000004e-04 0.0000000000000000e+00  -1.7389977225280452e-05 4.7000000000000004e-04 0.0000000000000000e+00  -2.0029172185917591e-05 4.7000000000000004e-04 0.0000000000000000e+00  -2.2698403447507799e-05 4.7000000000000004e-04 0.0000000000000000e+00  -2.5398403035822296e-05 4.7000000000000004e-04 0.0000000000000000e+00  -2.8109135829931465e-05 4.7000000000000004e-04 0.0000000000000000e+00  -3.0833553191036403e-05 4.7000000000000004e-04 0.0000000000000000e+00  -3.3562636332711873e-05 4.7000000000000004e-04 0.0000000000000000e+00  -3.6294444605891452e-05 4.7000000000000004e-04 0.0000000000000000e+00  -3.9026403890754360e-05 4.7000000000000004e-04 0.0000000000000000e+00  -4.1756417368245404e-05 4.7000000000000004e-04 0.0000000000000000e+00  -4.4483473142221312e-05 4.7000000000000004e-04 0.0000000000000000e+00  -4.7206412651841654e-05 4.7000000000000004e-04 0.0000000000000000e+00  -4.9926768934722281e-05 4.7000000000000004e-04 0.0000000000000000e+00  -5.2644089858598331e-05 4.7000000000000004e-04 0.0000000000000000e+00  -5.5359479040506329e-05 4.7000000000000004e-04 0.0000000000000000e+00  -5.8072330901897052e-05 4.7000000000000004e-04 0.0000000000000000e+00  -6.0784355449299124e-05 4.7000000000000004e-04 0.0000000000000000e+00  -6.3498271454976492e-05 4.7000000000000004e-04 0.0000000000000000e+00  -6.6214326367602323e-05 4.7000000000000004e-04 0.0000000000000000e+00  -6.8935066106243760e-05 4.7000000000000004e-04 0.0000000000000000e+00  -7.1661040690983708e-05 4.7000000000000004e-04 0.0000000000000000e+00  -7.4392486343198355e-05 4.7000000000000004e-04 0.0000000000000000e+00  -7.7132708512086626e-05 4.7000000000000004e-04 0.0000000000000000e+00  -7.9883050347581607e-05 4.7000000000000004e-04 0.0000000000000000e+00  -8.2645335615723979e-05 4.7000000000000004e-04 0.0000000000000000e+00  -8.5418992687692587e-05 4.7000000000000004e-04 0.0000000000000000e+00  -8.8199870918328422e-05 4.7000000000000004e-04 0.0000000000000000e+00  -9.0997752615795338e-05 4.7000000000000004e-04 0.0000000000000000e+00  -9.3810994541969000e-05 4.7000000000000004e-04 0.0000000000000000e+00  -9.6642598406364527e-05 4.7000000000000004e-04 0.0000000000000000e+00  -9.9480371994680586e-05 4.7000000000000004e-04 0.0000000000000000e+00  -1.0233973634740059e-04 4.7000000000000004e-04 0.0000000000000000e+00  -1.0521913566762516e-04 4.7000000000000004e-04 0.0000000000000000e+00  -1.0810762628549910e-04 4.7000000000000004e-04 0.0000000000000000e+00  -1.1101601296165716e-04 4.7000000000000004e-04 0.0000000000000000e+00  -1.1394165424326521e-04 4.7000000000000004e-04 0.0000000000000000e+00  -1.1688529602782942e-04 4.7000000000000004e-04 0.0000000000000000e+00  -1.1984267660580752e-04 4.7000000000000004e-04 0.0000000000000000e+00  -1.2281195984479001e-04 4.7000000000000004e-04 0.0000000000000000e+00  -1.2579645201586052e-04 4.7000000000000004e-04 0.0000000000000000e+00  -1.2879735674166734e-04 4.7000000000000004e-04 0.0000000000000000e+00  -1.3180862130749576e-04 4.7000000000000004e-04 0.0000000000000000e+00  -1.3482993741101003e-04 4.7000000000000004e-04 0.0000000000000000e+00  -1.3786129845987606e-04 4.7000000000000004e-04 0.0000000000000000e+00  -1.4090303498250325e-04 4.7000000000000004e-04 0.0000000000000000e+00  -1.4394721210714517e-04 4.7000000000000004e-04 0.0000000000000000e+00  -1.4700055072939359e-04 4.7000000000000004e-04 0.0000000000000000e+00  -1.5005024799826807e-04 4.7000000000000004e-04 0.0000000000000000e+00  -1.5310604349872052e-04 4.7000000000000004e-04 0.0000000000000000e+00  -1.5616148760392714e-04 4.7000000000000004e-04 0.0000000000000000e+00  -1.5920836107812157e-04 4.7000000000000004e-04 0.0000000000000000e+00  -1.6225095695509238e-04 4.7000000000000004e-04 0.0000000000000000e+00  -1.6528667550447847e-04 4.7000000000000004e-04 0.0000000000000000e+00  -1.6831066444236844e-04 4.7000000000000004e-04 0.0000000000000000e+00  -1.7131845842430134e-04 4.7000000000000004e-04 0.0000000000000000e+00  -1.7431984109607661e-04 4.7000000000000004e-04 0.0000000000000000e+00  -1.7729788268067780e-04 4.7000000000000004e-04 0.0000000000000000e+00  -1.8025422454043133e-04 4.7000000000000004e-04 0.0000000000000000e+00  -1.8318696240393162e-04 4.7000000000000004e-04 0.0000000000000000e+00  -1.8608998954806145e-04 4.7000000000000004e-04 0.0000000000000000e+00  -1.8896766107561345e-04 4.7000000000000004e-04 0.0000000000000000e+00  -1.9181973486398187e-04 4.7000000000000004e-04 0.0000000000000000e+00  -1.9462391284493123e-04 4.7000000000000004e-04 0.0000000000000000e+00  -1.9740625044266071e-04 4.7000000000000004e-04 0.0000000000000000e+00  -2.0010458944536366e-04 4.6181579121678108e-04 0.0000000000000000e+00  -1.9992297185150005e-04 4.5362925305174865e-04 0.0000000000000000e+00  -1.9966676127263397e-04 4.4544012619053178e-04 0.0000000000000000e+00  -1.9927063206259793e-04 4.3724791528466261e-04 0.0000000000000000e+00  -1.9877519508730378e-04 4.2906592395202834e-04 0.0000000000000000e+00  -1.9814494162485199e-04 4.2085835487974975e-04 0.0000000000000000e+00  -1.9741656073974214e-04 4.1266624470656291e-04 0.0000000000000000e+00  -1.9657823720217507e-04 4.0445300038832163e-04 0.0000000000000000e+00  -1.9561368373398159e-04 3.9623648893752508e-04 0.0000000000000000e+00  -1.9453037821819198e-04 3.8802788760786160e-04 0.0000000000000000e+00  -1.9333206286170821e-04 3.7979093661736333e-04 0.0000000000000000e+00  -1.9201081048779705e-04 3.7155248965649898e-04 0.0000000000000000e+00  -1.9057317769925676e-04 3.6329299004174762e-04 0.0000000000000000e+00  -1.8900308194046860e-04 3.5504466256439609e-04 0.0000000000000000e+00  -1.8731561501574216e-04 3.4675521986356482e-04 0.0000000000000000e+00  -1.8549448614124504e-04 3.3844462511727319e-04 0.0000000000000000e+00  -1.8353984458221952e-04 3.3013803250538136e-04 0.0000000000000000e+00  -1.8145494443178167e-04 3.2179027986565167e-04 0.0000000000000000e+00  -1.7922698674651826e-04 3.1344253502799292e-04 0.0000000000000000e+00  -1.7686012388984598e-04 3.0506048437212060e-04 0.0000000000000000e+00  -1.7435739659592118e-04 2.9662654459114120e-04 0.0000000000000000e+00  -1.7169632665208008e-04 2.8820052262210446e-04 0.0000000000000000e+00  -1.6889156261278842e-04 2.7971012447987965e-04 0.0000000000000000e+00  -1.6591734075362705e-04 2.7120303417867939e-04 0.0000000000000000e+00  -1.6280062575832490e-04 2.6263478998537825e-04 0.0000000000000000e+00  -1.5949958737975552e-04 2.5405238423799364e-04 0.0000000000000000e+00  -1.5604929801044486e-04 2.4537654041905136e-04 0.0000000000000000e+