<?xml version="1.0"?>
<VTKFile type="UnstructuredGrid"  version="0.1"  >
<UnstructuredGrid>
<Piece  NumberOfPoints="16512" NumberOfCells="32424">
<Points>
<DataArray  type="Float64"  NumberOfComponents="3"  format="ascii">-25 4.9 0  25 4.9 0  25 -4.9 0  -25 -4.9 0  -10 0 0  10 0 0  -24.80000000000034 4.9 0  -24.60000000000068 4.9 0  -24.40000000000101 4.9 0  -24.20000000000135 4.9 0  -24.00000000000169 4.9 0  -23.80000000000203 4.9 0  -23.60000000000237 4.9 0  -23.40000000000271 4.9 0  -23.20000000000304 4.9 0  -23.00000000000338 4.9 0  -22.80000000000372 4.9 0  -22.60000000000406 4.9 0  -22.40000000000439 4.9 0  -22.20000000000473 4.9 0  -22.00000000000507 4.9 0  -21.80000000000541 4.9 0  -21.60000000000575 4.9 0  -21.40000000000608 4.9 0  -21.20000000000642 4.9 0  -21.00000000000676 4.9 0  -20.8000000000071 4.9 0  -20.60000000000744 4.9 0  -20.40000000000777 4.9 0  -20.20000000000811 4.9 0  -20.00000000000845 4.9 0  -19.80000000000879 4.9 0  -19.60000000000912 4.9 0  -19.40000000000946 4.9 0  -19.2000000000098 4.9 0  -19.00000000001039 4.9 0  -18.80000000001108 4.9 0  -18.60000000001231 4.9 0  -18.40000000001371 4.9 0  -18.2000000000154 4.9 0  -18.00000000001716 4.9 0  -17.80000000001892 4.9 0  -17.60000000002067 4.9 0  -17.40000000002243 4.9 0  -17.20000000002419 4.9 0  -17.00000000002595 4.9 0  -16.80000000002771 4.9 0  -16.60000000002947 4.9 0  -16.40000000003123 4.9 0  -16.20000000003299 4.9 0  -16.00000000003472 4.9 0  -15.80000000003612 4.9 0  -15.60000000003748 4.9 0  -15.40000000003853 4.9 0  -15.20000000003958 4.9 0  -15.00000000004063 4.9 0  -14.80000000004168 4.9 0  -14.60000000004273 4.9 0  -14.40000000004377 4.9 0  -14.20000000004482 4.9 0  -14.00000000004587 4.9 0  -13.80000000004692 4.9 0  -13.60000000004797 4.9 0  -13.40000000004902 4.9 0  -13.20000000005007 4.9 0  -13.00000000005111 4.9 0  -12.80000000005216 4.9 0  -12.60000000005321 4.9 0  -12.40000000005426 4.9 0  -12.20000000005531 4.9 0  -12.00000000005636 4.9 0  -11.80000000005741 4.9 0  -11.60000000005846 4.9 0  -11.4000000000595 4.9 0  -11.20000000006055 4.9 0  -11.0000000000616 4.9 0  -10.80000000006265 4.9 0  -10.6000000000637 4.9 0  -10.40000000006475 4.9 0  -10.2000000000658 4.9 0  -10.00000000006684 4.9 0  -9.800000000067891 4.9 0  -9.60000000006894 4.9 0  -9.400000000069989 4.9 0  -9.200000000070727 4.9 0  -9.00000000007142 4.9 0  -8.800000000071787 4.9 0  -8.600000000072125 4.9 0  -8.400000000072467 4.9 0  -8.200000000072805 4.9 0  -8.000000000073143 4.9 0  -7.800000000073481 4.9 0  -7.60000000007382 4.9 0  -7.400000000074154 4.9 0  -7.200000000074493 4.9 0  -7.000000000074831 4.9 0  -6.800000000075173 4.9 0  -6.600000000075511 4.9 0  -6.400000000075849 4.9 0  -6.200000000076187 4.9 0  -6.000000000076525 4.9 0  -5.800000000076867 4.9 0  -5.600000000077205 4.9 0  -5.400000000077544 4.9 0  -5.200000000077882 4.9 0  -5.00000000007822 4.9 0  -4.800000000078558 4.9 0  -4.600000000078897 4.9 0  -4.400000000079235 4.9 0  -4.200000000079573 4.9 0  -4.000000000079908 4.9 0  -3.800000000080246 4.9 0  -3.600000000080588 4.9 0  -3.400000000080926 4.9 0  -3.200000000081264 4.9 0  -3.000000000081606 4.9 0  -2.800000000081944 4.9 0  -2.600000000082282 4.9 0  -2.40000000008262 4.9 0  -2.200000000082959 4.9 0  -2.000000000083297 4.9 0  -1.800000000083635 4.9 0  -1.600000000083973 4.9 0  -1.400000000084312 4.9 0  -1.20000000008465 4.9 0  -1.000000000084988 4.9 0  -0.8000000000853262 4.9 0  -0.6000000000856645 4.9 0  -0.4000000000860027 4.9 0  -0.2000000000863409 4.9 0  -8.667910833537462e-11 4.9 0  0.1999999999129827 4.9 0  0.3999999999126409 4.9 0  0.5999999999123027 4.9 0  0.7999999999119716 4.9 0  0.9999999999116262 4.9 0  1.199999999911295 4.9 0  1.39999999991095 4.9 0  1.599999999910619 4.9 0  1.799999999910273 4.9 0  1.999999999909939 4.9 0  2.199999999909597 4.9 0  2.399999999909262 4.9 0  2.599999999908921 4.9 0  2.799999999908582 4.9 0  2.999999999908244 4.9 0  3.199999999907906 4.9 0  3.399999999907564 4.9 0  3.599999999907226 4.9 0  3.799999999906888 4.9 0  3.999999999906549 4.9 0  4.199999999906218 4.9 0  4.399999999905873 4.9 0  4.599999999905542 4.9 0  4.799999999905197 4.9 0  4.999999999904865 4.9 0  5.19999999990452 4.9 0  5.399999999904182 4.9 0  5.599999999903844 4.9 0  5.799999999903505 4.9 0  5.999999999903167 4.9 0  6.199999999902829 4.9 0  6.399999999902491 4.9 0  6.599999999902153 4.9 0  6.799999999902379 4.9 0  6.999999999902752 4.9 0  7.199999999903724 4.9 0  7.399999999904807 4.9 0  7.59999999990589 4.9 0  7.799999999906966 4.9 0  7.999999999908056 4.9 0  8.199999999909132 4.9 0  8.399999999910214 4.9 0  8.59999999991129 4.9 0  8.79999999991238 4.9 0  8.999999999913456 4.9 0  9.199999999914539 4.9 0  9.399999999915622 4.9 0  9.599999999916704 4.9 0  9.79999999991778 4.9 0  9.99999999991887 4.9 0  10.19999999991995 4.9 0  10.39999999992103 4.9 0  10.59999999992212 4.9 0  10.79999999992319 4.9 0  10.99999999992428 4.9 0  11.19999999992536 4.9 0  11.39999999992644 4.9 0  11.59999999992752 4.9 0  11.7999999999286 4.9 0  11.99999999992968 4.9 0  12.19999999993077 4.9 0  12.39999999993184 4.9 0  12.59999999993293 4.9 0  12.79999999993401 4.9 0  12.99999999993509 4.9 0  13.19999999993617 4.9 0  13.39999999993726 4.9 0  13.59999999993834 4.9 0  13.79999999993942 4.9 0  13.99999999994051 4.9 0  14.19999999994158 4.9 0  14.39999999994266 4.9 0  14.59999999994375 4.9 0  14.79999999994483 4.9 0  14.99999999994591 4.9 0  15.199999999947 4.9 0  15.39999999994807 4.9 0  15.59999999994915 4.9 0  15.79999999995024 4.9 0  15.99999999995132 4.9 0  16.1999999999524 4.9 0  16.39999999995349 4.9 0  16.59999999995456 4.9 0  16.79999999995565 4.9 0  16.99999999995674 4.9 0  17.19999999995781 4.9 0  17.39999999995889 4.9 0  17.59999999995997 4.9 0  17.79999999996106 4.9 0  17.99999999996214 4.9 0  18.19999999996322 4.9 0  18.3999999999643 4.9 0  18.59999999996538 4.9 0  18.79999999996646 4.9 0  18.99999999996755 4.9 0  19.19999999996863 4.9 0  19.39999999996971 4.9 0  19.59999999997079 4.9 0  19.79999999997187 4.9 0  19.99999999997296 4.9 0  20.19999999997404 4.9 0  20.39999999997512 4.9 0  20.5999999999762 4.9 0  20.79999999997728 4.9 0  20.99999999997836 4.9 0  21.19999999997945 4.9 0  21.39999999998052 4.9 0  21.59999999998161 4.9 0  21.79999999998269 4.9 0  21.99999999998377 4.9 0  22.19999999998485 4.9 0  22.39999999998594 4.9 0  22.59999999998701 4.9 0  22.7999999999881 4.9 0  22.99999999998919 4.9 0  23.19999999999026 4.9 0  23.39999999999135 4.9 0  23.59999999999243 4.9 0  23.79999999999351 4.9 0  23.99999999999459 4.9 0  24.19999999999568 4.9 0  24.39999999999675 4.9 0  24.59999999999783 4.9 0  24.79999999999892 4.9 0  25 4.700000000000415 0  25 4.500000000000868 0  25 4.300000000001562 0  25 4.100000000001831 0  25 3.900000000002072 0  25 3.700000000002459 0  25 3.500000000003038 0  25 3.300000000003653 0  25 3.100000000004294 0  25 2.900000000004838 0  25 2.700000000005293 0  25 2.500000000005957 0  25 2.300000000006508 0  25 2.100000000007153 0  25 1.900000000007722 0  25 1.700000000008417 0  25 1.500000000008938 0  25 1.30000000000963 0  25 1.100000000010154 0  25 0.9000000000108268 0  25 0.7000000000114559 0  25 0.5000000000119762 0  25 0.3000000000126564 0  25 0.1000000000131926 0  25 -0.09999999998679243 0  25 -0.2999999999874587 0  25 -0.4999999999878586 0  25 -0.6999999999884441 0  25 -0.899999999988804 0  25 -1.099999999989427 0  25 -1.299999999989749 0  25 -1.499999999990411 0  25 -1.69999999999073 0  25 -1.899999999991396 0  25 -2.099999999991715 0  25 -2.299999999992381 0  25 -2.499999999993047 0  25 -2.699999999993714 0  25 -2.899999999994227 0  25 -3.099999999994698 0  25 -3.299999999994673 0  25 -3.499999999995339 0  25 -3.699999999996004 0  25 -3.89999999999667 0  25 -4.099999999997335 0  25 -4.299999999998002 0  25 -4.499999999998668 0  25 -4.699999999999335 0  24.80000000000034 -4.9 0  24.60000000000068 -4.9 0  24.40000000000101 -4.9 0  24.20000000000135 -4.9 0  24.00000000000169 -4.9 0  23.80000000000203 -4.9 0  23.60000000000237 -4.9 0  23.40000000000271 -4.9 0  23.20000000000304 -4.9 0  23.00000000000338 -4.9 0  22.80000000000372 -4.9 0  22.60000000000406 -4.9 0  22.40000000000439 -4.9 0  22.20000000000473 -4.9 0  22.00000000000507 -4.9 0  21.80000000000541 -4.9 0  21.60000000000575 -4.9 0  21.40000000000608 -4.9 0  21.20000000000642 -4.9 0  21.00000000000676 -4.9 0  20.8000000000071 -4.9 0  20.60000000000744 -4.9 0  20.40000000000777 -4.9 0  20.20000000000811 -4.9 0  20.00000000000845 -4.9 0  19.80000000000879 -4.9 0  19.60000000000912 -4.9 0  19.40000000000946 -4.9 0  19.2000000000098 -4.9 0  19.00000000001039 -4.9 0  18.80000000001108 -4.9 0  18.60000000001231 -4.9 0  18.40000000001371 -4.9 0  18.2000000000154 -4.9 0  18.00000000001716 -4.9 0  17.80000000001892 -4.9 0  17.60000000002067 -4.9 0  17.40000000002243 -4.9 0  17.20000000002419 -4.9 0  17.00000000002595 -4.9 0  16.80000000002771 -4.9 0  16.60000000002947 -4.9 0  16.40000000003123 -4.9 0  16.20000000003299 -4.9 0  16.00000000003472 -4.9 0  15.80000000003612 -4.9 0  15.60000000003748 -4.9 0  15.40000000003853 -4.9 0  15.20000000003958 -4.9 0  15.00000000004063 -4.9 0  14.80000000004168 -4.9 0  14.60000000004273 -4.9 0  14.40000000004377 -4.9 0  14.20000000004482 -4.9 0  14.00000000004587 -4.9 0  13.80000000004692 -4.9 0  13.60000000004797 -4.9 0  13.40000000004902 -4.9 0  13.20000000005007 -4.9 0  13.00000000005111 -4.9 0  12.80000000005216 -4.9 0  12.60000000005321 -4.9 0  12.40000000005426 -4.9 0  12.20000000005531 -4.9 0  12.00000000005636 -4.9 0  11.80000000005741 -4.9 0  11.60000000005846 -4.9 0  11.4000000000595 -4.9 0  11.20000000006055 -4.9 0  11.0000000000616 -4.9 0  10.80000000006265 -4.9 0  10.6000000000637 -4.9 0  10.40000000006475 -4.9 0  10.2000000000658 -4.9 0  10.00000000006684 -4.9 0  9.800000000067891 -4.9 0  9.60000000006894 -4.9 0  9.400000000069989 -4.9 0  9.200000000070727 -4.9 0  9.00000000007142 -4.9 0  8.800000000071787 -4.9 0  8.600000000072125 -4.9 0  8.400000000072467 -4.9 0  8.200000000072805 -4.9 0  8.000000000073143 -4.9 
[...]
<PointData  Vectors="f_7"> 
<DataArray  type="Float64"  Name="f_7"  NumberOfComponents="3" format="ascii">1.6933371885357099e-04 3.9500000000000001e-04 0.0000000000000000e+00  -1.6948606217206697e-04 3.9500000000000001e-04 0.0000000000000000e+00  0.0000000000000000e+00 0.0000000000000000e+00 0.0000000000000000e+00  0.0000000000000000e+00 0.0000000000000000e+00 0.0000000000000000e+00  3.0188286666773706e-05 1.9789139886254784e-04 0.0000000000000000e+00  -2.9562868751040011e-05 1.9458304839517089e-04 0.0000000000000000e+00  1.6701684876440362e-04 3.9500000000000001e-04 0.0000000000000000e+00  1.6468292285107961e-04 3.9500000000000001e-04 0.0000000000000000e+00  1.6233460691414021e-04 3.9500000000000001e-04 0.0000000000000000e+00  1.5993693007835812e-04 3.9500000000000001e-04 0.0000000000000000e+00  1.5752848299074049e-04 3.9500000000000001e-04 0.0000000000000000e+00  1.5508438030674494e-04 3.9500000000000001e-04 0.0000000000000000e+00  1.5262596883032725e-04 3.9500000000000001e-04 0.0000000000000000e+00  1.5013893757738730e-04 3.9500000000000001e-04 0.0000000000000000e+00  1.4764633673000356e-04 3.9500000000000001e-04 0.0000000000000000e+00  1.4512997649805754e-04 3.9500000000000001e-04 0.0000000000000000e+00  1.4260110755619511e-04 3.9500000000000001e-04 0.0000000000000000e+00  1.4007237529334996e-04 3.9500000000000001e-04 0.0000000000000000e+00  1.3751607036147504e-04 3.9500000000000001e-04 0.0000000000000000e+00  1.3496324224063517e-04 3.9500000000000001e-04 0.0000000000000000e+00  1.3240889566534840e-04 3.9500000000000001e-04 0.0000000000000000e+00  1.2985515563596349e-04 3.9500000000000001e-04 0.0000000000000000e+00  1.2728412014726019e-04 3.9500000000000001e-04 0.0000000000000000e+00  1.2472335085607334e-04 3.9500000000000001e-04 0.0000000000000000e+00  1.2217107272930990e-04 3.9500000000000001e-04 0.0000000000000000e+00  1.1961047392433118e-04 3.9500000000000001e-04 0.0000000000000000e+00  1.1706054102419695e-04 3.9500000000000001e-04 0.0000000000000000e+00  1.1451891909112118e-04 3.9500000000000001e-04 0.0000000000000000e+00  1.1198987536653734e-04 3.9500000000000001e-04 0.0000000000000000e+00  1.0947478888148360e-04 3.9500000000000001e-04 0.0000000000000000e+00  1.0695435638438731e-04 3.9500000000000001e-04 0.0000000000000000e+00  1.0445179001125618e-04 3.9500000000000001e-04 0.0000000000000000e+00  1.0196557951458297e-04 3.9500000000000001e-04 0.0000000000000000e+00  9.9489942200171882e-05 3.9500000000000001e-04 0.0000000000000000e+00  9.7028544291191687e-05 3.9500000000000001e-04 0.0000000000000000e+00  9.4582925997076581e-05 3.9500000000000001e-04 0.0000000000000000e+00  9.2149022141278016e-05 3.9500000000000001e-04 0.0000000000000000e+00  8.9730735924613441e-05 3.9500000000000001e-04 0.0000000000000000e+00  8.7328026331495891e-05 3.9500000000000001e-04 0.0000000000000000e+00  8.4943379763719349e-05 3.9500000000000001e-04 0.0000000000000000e+00  8.2563471690445657e-05 3.9500000000000001e-04 0.0000000000000000e+00  8.0203044096001526e-05 3.9500000000000001e-04 0.0000000000000000e+00  7.7854696905333819e-05 3.9500000000000001e-04 0.0000000000000000e+00  7.5522271195649555e-05 3.9500000000000001e-04 0.0000000000000000e+00  7.3197419088095238e-05 3.9500000000000001e-04 0.0000000000000000e+00  7.0886240649884242e-05 3.9500000000000001e-04 0.0000000000000000e+00  6.8587397973262281e-05 3.9500000000000001e-04 0.0000000000000000e+00  6.6298066848146872e-05 3.9500000000000001e-04 0.0000000000000000e+00  6.4017162597816051e-05 3.9500000000000001e-04 0.0000000000000000e+00  6.1743870282800748e-05 3.9500000000000001e-04 0.0000000000000000e+00  5.9476587700933544e-05 3.9500000000000001e-04 0.0000000000000000e+00  5.7215307453496568e-05 3.9500000000000001e-04 0.0000000000000000e+00  5.4958854800666053e-05 3.9500000000000001e-04 0.0000000000000000e+00  5.2705396697546026e-05 3.9500000000000001e-04 0.0000000000000000e+00  5.0454409748320806e-05 3.9500000000000001e-04 0.0000000000000000e+00  4.8205482704820522e-05 3.9500000000000001e-04 0.0000000000000000e+00  4.5956351628168306e-05 3.9500000000000001e-04 0.0000000000000000e+00  4.3705884696538388e-05 3.9500000000000001e-04 0.0000000000000000e+00  4.1455353137442894e-05 3.9500000000000001e-04 0.0000000000000000e+00  3.9201872488228535e-05 3.9500000000000001e-04 0.0000000000000000e+00  3.6949492638579021e-05 3.9500000000000001e-04 0.0000000000000000e+00  3.4695716027795384e-05 3.9500000000000001e-04 0.0000000000000000e+00  3.2441463450294800e-05 3.9500000000000001e-04 0.0000000000000000e+00  3.0187761851559114e-05 3.9500000000000001e-04 0.0000000000000000e+00  2.7938840561398018e-05 3.9500000000000001e-04 0.0000000000000000e+00  2.5694197513922916e-05 3.9500000000000001e-04 0.0000000000000000e+00  2.3466962680837426e-05 3.9500000000000001e-04 0.0000000000000000e+00  2.1252525081016477e-05 3.9500000000000001e-04 0.0000000000000000e+00  1.9058403449252799e-05 3.9500000000000001e-04 0.0000000000000000e+00  1.6888056015297908e-05 3.9500000000000001e-04 0.0000000000000000e+00  1.4751176773807257e-05 3.9500000000000001e-04 0.0000000000000000e+00  1.2663883728656875e-05 3.9500000000000001e-04 0.0000000000000000e+00  1.0630860300651499e-05 3.9500000000000001e-04 0.0000000000000000e+00  8.6750433272234288e-06 3.9500000000000001e-04 0.0000000000000000e+00  6.7808148684155168e-06 3.9500000000000001e-04 0.0000000000000000e+00  4.9530162724136549e-06 3.9500000000000001e-04 0.0000000000000000e+00  3.2304182156519389e-06 3.9500000000000001e-04 0.0000000000000000e+00  1.6308695371115183e-06 3.9500000000000001e-04 0.0000000000000000e+00  1.4196776195912894e-07 3.9500000000000001e-04 0.0000000000000000e+00  -1.2478882761472886e-06 3.9500000000000001e-04 0.0000000000000000e+00  -2.4835615870723264e-06 3.9500000000000001e-04 0.0000000000000000e+00  -3.6070538954636772e-06 3.9500000000000001e-04 0.0000000000000000e+00  -4.5916300919928905e-06 3.9500000000000001e-04 0.0000000000000000e+00  -5.4287079309383626e-06 3.9500000000000001e-04 0.0000000000000000e+00  -6.1390307817439886e-06 3.9500000000000001e-04 0.0000000000000000e+00  -6.7289729505340685e-06 3.9500000000000001e-04 0.0000000000000000e+00  -7.1920121791053770e-06 3.9500000000000001e-04 0.0000000000000000e+00  -7.5337096995210473e-06 3.9500000000000001e-04 0.0000000000000000e+00  -7.7610438288892864e-06 3.9500000000000001e-04 0.0000000000000000e+00  -7.8860377362886816e-06 3.9500000000000001e-04 0.0000000000000000e+00  -7.9308884379704042e-06 3.9500000000000001e-04 0.0000000000000000e+00  -7.9004222835627766e-06 3.9500000000000001e-04 0.0000000000000000e+00  -7.7897511275643702e-06 3.9500000000000001e-04 0.0000000000000000e+00  -7.6134123205573608e-06 3.9500000000000001e-04 0.0000000000000000e+00  -7.3974125344895101e-06 3.9500000000000001e-04 0.0000000000000000e+00  -7.1409729372014908e-06 3.9500000000000001e-04 0.0000000000000000e+00  -6.8528395349703587e-06 3.9500000000000001e-04 0.0000000000000000e+00  -6.5302891172045536e-06 3.9500000000000001e-04 0.0000000000000000e+00  -6.1945518283939950e-06 3.9500000000000001e-04 0.0000000000000000e+00  -5.8474925094719051e-06 3.9500000000000001e-04 0.0000000000000000e+00  -5.4969739938691660e-06 3.9500000000000001e-04 0.0000000000000000e+00  -5.1399387042360972e-06 3.9500000000000001e-04 0.0000000000000000e+00  -4.7892483353395411e-06 3.9500000000000001e-04 0.0000000000000000e+00  -4.4463590135304821e-06 3.9500000000000001e-04 0.0000000000000000e+00  -4.1128468672394135e-06 3.9500000000000001e-04 0.0000000000000000e+00  -3.7915885584576532e-06 3.9500000000000001e-04 0.0000000000000000e+00  -3.4854982987241343e-06 3.9500000000000001e-04 0.0000000000000000e+00  -3.1967741885989857e-06 3.9500000000000001e-04 0.0000000000000000e+00  -2.9210948983053823e-06 3.9500000000000001e-04 0.0000000000000000e+00  -2.6650393470876611e-06 3.9500000000000001e-04 0.0000000000000000e+00  -2.4278410231524800e-06 3.9500000000000001e-04 0.0000000000000000e+00  -2.2105986624634055e-06 3.9500000000000001e-04 0.0000000000000000e+00  -2.0119360347263695e-06 3.9500000000000001e-04 0.0000000000000000e+00  -1.8310358069078575e-06 3.9500000000000001e-04 0.0000000000000000e+00  -1.6672208745222085e-06 3.9500000000000001e-04 0.0000000000000000e+00  -1.5215406050517861e-06 3.9500000000000001e-04 0.0000000000000000e+00  -1.3919469205677172e-06 3.9500000000000001e-04 0.0000000000000000e+00  -1.2774250657860743e-06 3.9500000000000001e-04 0.0000000000000000e+00  -1.1753842077655134e-06 3.9500000000000001e-04 0.0000000000000000e+00  -1.0868027194117075e-06 3.9500000000000001e-04 0.0000000000000000e+00  -1.0083743035132958e-06 3.9500000000000001e-04 0.0000000000000000e+00  -9.4059855120594746e-07 3.9500000000000001e-04 0.0000000000000000e+00  -8.8043966022311584e-07 3.9500000000000001e-04 0.0000000000000000e+00  -8.2768511811533650e-07 3.9500000000000001e-04 0.0000000000000000e+00  -7.8049433264091602e-07 3.9500000000000001e-04 0.0000000000000000e+00  -7.3739863779966163e-07 3.9500000000000001e-04 0.0000000000000000e+00  -6.9732428828225953e-07 3.9500000000000001e-04 0.0000000000000000e+00  -6.5883352533972216e-07 3.9500000000000001e-04 0.0000000000000000e+00  -6.2003699815420621e-07 3.9500000000000001e-04 0.0000000000000000e+00  -5.8038369872344399e-07 3.9500000000000001e-04 0.0000000000000000e+00  -5.3866931933720107e-07 3.9500000000000001e-04 0.0000000000000000e+00  -4.9390515500840130e-07 3.9500000000000001e-04 0.0000000000000000e+00  -4.4361937429158887e-07 3.9500000000000001e-04 0.0000000000000000e+00  -3.8857534736311822e-07 3.9500000000000001e-04 0.0000000000000000e+00  -3.2736585417872818e-07 3.9500000000000001e-04 0.0000000000000000e+00  -2.5787674703015346e-07 3.9500000000000001e-04 0.0000000000000000e+00  -1.8019412894786647e-07 3.9500000000000001e-04 0.0000000000000000e+00  -9.3140674436164206e-08 3.9500000000000001e-04 0.0000000000000000e+00  4.5836890826061371e-09 3.9500000000000001e-04 0.0000000000000000e+00  1.1225140230903245e-07 3.9500000000000001e-04 0.0000000000000000e+00  2.3069747539793324e-07 3.9500000000000001e-04 0.0000000000000000e+00  3.6049316674890160e-07 3.9500000000000001e-04 0.0000000000000000e+00  5.0270886815191107e-07 3.9500000000000001e-04 0.0000000000000000e+00  6.5718643630107200e-07 3.9500000000000001e-04 0.0000000000000000e+00  8.2448739712532745e-07 3.9500000000000001e-04 0.0000000000000000e+00  1.0052355556944749e-06 3.9500000000000001e-04 0.0000000000000000e+00  1.1990828057283999e-06 3.9500000000000001e-04 0.0000000000000000e+00  1.4077870628467646e-06 3.9500000000000001e-04 0.0000000000000000e+00  1.6306989784711917e-06 3.9500000000000001e-04 0.0000000000000000e+00  1.8666061515589903e-06 3.9500000000000001e-04 0.0000000000000000e+00  2.1183689582067808e-06 3.9500000000000001e-04 0.0000000000000000e+00  2.3847530217881770e-06 3.9500000000000001e-04 0.0000000000000000e+00  2.6664543193312308e-06 3.9500000000000001e-04 0.0000000000000000e+00  2.9628333064181515e-06 3.9500000000000001e-04 0.0000000000000000e+00  3.2721296988796881e-06 3.9500000000000001e-04 0.0000000000000000e+00  3.6006652394693603e-06 3.9500000000000001e-04 0.0000000000000000e+00  3.9341847382140527e-06 3.9500000000000001e-04 0.0000000000000000e+00  4.2801417017768269e-06 3.9500000000000001e-04 0.0000000000000000e+00  4.6355038662354203e-06 3.9500000000000001e-04 0.0000000000000000e+00  4.9979452448153999e-06 3.9500000000000001e-04 0.0000000000000000e+00  5.3583831854910857e-06 3.9500000000000001e-04 0.0000000000000000e+00  5.7185313240768853e-06 3.9500000000000001e-04 0.0000000000000000e+00  6.0709915410837263e-06 3.9500000000000001e-04 0.0000000000000000e+00  6.4118917440068941e-06 3.9500000000000001e-04 0.0000000000000000e+00  6.7371021913138759e-06 3.9500000000000001e-04 0.0000000000000000e+00  7.0273272322626761e-06 3.9500000000000001e-04 0.0000000000000000e+00  7.2836548903792140e-06 3.9500000000000001e-04 0.0000000000000000e+00  7.4896039228437667e-06 3.9500000000000001e-04 0.0000000000000000e+00  7.6601429448547745e-06 3.9500000000000001e-04 0.0000000000000000e+00  7.7605624086849649e-06 3.9500000000000001e-04 0.0000000000000000e+00  7.7842383226801639e-06 3.9500000000000001e-04 0.0000000000000000e+00  7.7365840903450857e-06 3.9500000000000001e-04 0.0000000000000000e+00  7.5833882007531204e-06 3.9500000000000001e-04 0.0000000000000000e+00  7.3583283798119802e-06 3.9500000000000001e-04 0.0000000000000000e+00  7.0191768661169467e-06 3.9500000000000001e-04 0.0000000000000000e+00  6.5432778323899568e-06 3.9500000000000001e-04 0.0000000000000000e+00  5.9361402021031082e-06 3.9500000000000001e-04 0.0000000000000000e+00  5.2119136370274162e-06 3.9500000000000001e-04 0.0000000000000000e+00  4.3470071620323910e-06 3.9500000000000001e-04 0.0000000000000000e+00  3.3421047668800641e-06 3.9500000000000001e-04 0.0000000000000000e+00  2.2096131661809526e-06 3.9500000000000001e-04 0.0000000000000000e+00  9.3745965700293900e-07 3.9500000000000001e-04 0.0000000000000000e+00  -4.1674175305957047e-07 3.9500000000000001e-04 0.0000000000000000e+00  -1.9306684431300771e-06 3.9500000000000001e-04 0.0000000000000000e+00  -3.5517188482550052e-06 3.9500000000000001e-04 0.0000000000000000e+00  -5.2736624798272530e-06 3.9500000000000001e-04 0.0000000000000000e+00  -7.0927699038687736e-06 3.9500000000000001e-04 0.0000000000000000e+00  -8.9854358805597424e-06 3.9500000000000001e-04 0.0000000000000000e+00  -1.0963478969730422e-05 3.9500000000000001e-04 0.0000000000000000e+00  -1.2992373049549090e-05 3.9500000000000001e-04 0.0000000000000000e+00  -1.5084755095548158e-05 3.9500000000000001e-04 0.0000000000000000e+00  -1.7214661534474079e-05 3.9500000000000001e-04 0.0000000000000000e+00  -1.9377503694428368e-05 3.9500000000000001e-04 0.0000000000000000e+00  -2.1566241499174648e-05 3.9500000000000001e-04 0.0000000000000000e+00  -2.3781164184155476e-05 3.9500000000000001e-04 0.0000000000000000e+00  -2.6006421897512360e-05 3.9500000000000001e-04 0.0000000000000000e+00  -2.8244294277350256e-05 3.9500000000000001e-04 0.0000000000000000e+00  -3.0487457018617108e-05 3.9500000000000001e-04 0.0000000000000000e+00  -3.2734407649796801e-05 3.9500000000000001e-04 0.0000000000000000e+00  -3.4983091432172211e-05 3.9500000000000001e-04 0.0000000000000000e+00  -3.7231717495435545e-05 3.9500000000000001e-04 0.0000000000000000e+00  -3.9479541303449492e-05 3.9500000000000001e-04 0.0000000000000000e+00  -4.1725655578122927e-05 3.9500000000000001e-04 0.0000000000000000e+00  -4.3970980068736488e-05 3.9500000000000001e-04 0.0000000000000000e+00  -4.6215599624023506e-05 3.9500000000000001e-04 0.0000000000000000e+00  -4.8460433804661525e-05 3.9500000000000001e-04 0.0000000000000000e+00  -5.0704337840850714e-05 3.9500000000000001e-04 0.0000000000000000e+00  -5.2949321381514179e-05 3.9500000000000001e-04 0.0000000000000000e+00  -5.5197323839142880e-05 3.9500000000000001e-04 0.0000000000000000e+00  -5.7448602174147016e-05 3.9500000000000001e-04 0.0000000000000000e+00  -5.9705270391686240e-05 3.9500000000000001e-04 0.0000000000000000e+00  -6.1967716419182630e-05 3.9500000000000001e-04 0.0000000000000000e+00  -6.4236132855170820e-05 3.9500000000000001e-04 0.0000000000000000e+00  -6.6513159283934260e-05 3.9500000000000001e-04 0.0000000000000000e+00  -6.8799940013308596e-05 3.9500000000000001e-04 0.0000000000000000e+00  -7.1097984699649105e-05 3.9500000000000001e-04 0.0000000000000000e+00  -7.3406709286016390e-05 3.9500000000000001e-04 0.0000000000000000e+00  -7.5722422102116624e-05 3.9500000000000001e-04 0.0000000000000000e+00  -7.8053613845522000e-05 3.9500000000000001e-04 0.0000000000000000e+00  -8.0398700581596979e-05 3.9500000000000001e-04 0.0000000000000000e+00  -8.2760265769848986e-05 3.9500000000000001e-04 0.0000000000000000e+00  -8.5127730301807851e-05 3.9500000000000001e-04 0.0000000000000000e+00  -8.7514374562652232e-05 3.9500000000000001e-04 0.0000000000000000e+00  -8.9918817756150896e-05 3.9500000000000001e-04 0.0000000000000000e+00  -9.2331614932227217e-05 3.9500000000000001e-04 0.0000000000000000e+00  -9.4761968942973920e-05 3.9500000000000001e-04 0.0000000000000000e+00  -9.7207580393961982e-05 3.9500000000000001e-04 0.0000000000000000e+00  -9.9669065434860801e-05 3.9500000000000001e-04 0.0000000000000000e+00  -1.0214279444201555e-04 3.9500000000000001e-04 0.0000000000000000e+00  -1.0462722485183507e-04 3.9500000000000001e-04 0.0000000000000000e+00  -1.0712505261984986e-04 3.9500000000000001e-04 0.0000000000000000e+00  -1.0963730559193486e-04 3.9500000000000001e-04 0.0000000000000000e+00  -1.1215888119482291e-04 3.9500000000000001e-04 0.0000000000000000e+00  -1.1468944554201177e-04 3.9500000000000001e-04 0.0000000000000000e+00  -1.1722900620899339e-04 3.9500000000000001e-04 0.0000000000000000e+00  -1.1977777662039897e-04 3.9500000000000001e-04 0.0000000000000000e+00  -1.2232904914505051e-04 3.9500000000000001e-04 0.0000000000000000e+00  -1.2488851633625232e-04 3.9500000000000001e-04 0.0000000000000000e+00  -1.2744524676642902e-04 3.9500000000000001e-04 0.0000000000000000e+00  -1.3000753960248072e-04 3.9500000000000001e-04 0.0000000000000000e+00  -1.3256989022492879e-04 3.9500000000000001e-04 0.0000000000000000e+00  -1.3512531311892339e-04 3.9500000000000001e-04 0.0000000000000000e+00  -1.3767742298323132e-04 3.9500000000000001e-04 0.0000000000000000e+00  -1.4022399110645090e-04 3.9500000000000001e-04 0.0000000000000000e+00  -1.4276088924031116e-04 3.9500000000000001e-04 0.0000000000000000e+00  -1.4528431296054455e-04 3.9500000000000001e-04 0.0000000000000000e+00  -1.4780252764992036e-04 3.9500000000000001e-04 0.0000000000000000e+00  -1.5030115478003822e-04 3.9500000000000001e-04 0.0000000000000000e+00  -1.5278155483185231e-04 3.9500000000000001e-04 0.0000000000000000e+00  -1.5524208587185497e-04 3.9500000000000001e-04 0.0000000000000000e+00  -1.5767752266715516e-04 3.9500000000000001e-04 0.0000000000000000e+00  -1.6009153615408948e-04 3.9500000000000001e-04 0.0000000000000000e+00  -1.6248390447176649e-04 3.9500000000000001e-04 0.0000000000000000e+00  -1.6483557309185495e-04 3.9500000000000001e-04 0.0000000000000000e+00  -1.6716870506231296e-04 3.9500000000000001e-04 0.0000000000000000e+00  -1.6943027790449934e-04 3.8813918891640619e-04 0.0000000000000000e+00  -1.6927545109716167e-04 3.8127635136745813e-04 0.0000000000000000e+00  -1.6905702069878315e-04 3.7441124414558418e-04 0.0000000000000000e+00  -1.6871934895508687e-04 3.6754341893951862e-04 0.0000000000000000e+00  -1.6829704730417737e-04 3.6068415831591805e-04 0.0000000000000000e+00  -1.6775985118689044e-04 3.5380297200041105e-04 0.0000000000000000e+00  -1.6713905729127043e-04 3.4693476367526232e-04 0.0000000000000000e+00  -1.6642464078629697e-04 3.4004832355748275e-04 0.0000000000000000e+00  -1.6560274468605969e-04 3.3315885510820772e-04 0.0000000000000000e+00  -1.6467969707186566e-04 3.2627583068578828e-04 0.0000000000000000e+00  -1.6365887520262867e-04 3.1936836925784505e-04 0.0000000000000000e+00  -1.6253337311704396e-04 3.1245930610723896e-04 0.0000000000000000e+00  -1.6130901035893707e-04 3.0553197185516324e-04 0.0000000000000000e+00  -1.5997196907420038e-04 2.9861372238075833e-04 0.0000000000000000e+00  -1.5853523759862295e-04 2.9166014417581892e-04 0.0000000000000000e+00  -1.5698502130552530e-04 2.8468815670762676e-04 0.0000000000000000e+00  -1.5532136955313734e-04 2.7771907842523256e-04 0.0000000000000000e+00  -1.5354731814412064e-04 2.7071457476548919e-04 0.0000000000000000e+00  -1.5165179637979730e-04 2.6370955402227065e-04 0.0000000000000000e+00  -1.4963851608034860e-04 2.5667485194105159e-04 0.0000000000000000e+00  -1.4751024744836448e-04 2.4959562125312454e-04 0.0000000000000000e+00  -1.4524766514563021e-04 2.4252249557011273e-04 0.0000000000000000e+00  -1.4286362072935997e-04 2.3539424516295164e-04 0.0000000000000000e+00  -1.4033591655321817e-04 2.2825122886230783e-04 0.0000000000000000e+00  -1.3768791816836111e-04 2.2105579219976835e-04 0.0000000000000000e+00  -1.3488385481378709e-04 2.1384765114905286e-04 0.0000000000000000e+00  -1.3195392047604638e-04 2.0655977642707981e-04 0.000000000000000