<?xml version="1.0"?>
<VTKFile type="UnstructuredGrid"  version="0.1"  >
<UnstructuredGrid>
<Piece  NumberOfPoints="16512" NumberOfCells="32424">
<Points>
<DataArray  type="Float64"  NumberOfComponents="3"  format="ascii">-25 4.9 0  25 4.9 0  25 -4.9 0  -25 -4.9 0  -10 0 0  10 0 0  -24.80000000000034 4.9 0  -24.60000000000068 4.9 0  -24.40000000000101 4.9 0  -24.20000000000135 4.9 0  -24.00000000000169 4.9 0  -23.80000000000203 4.9 0  -23.60000000000237 4.9 0  -23.40000000000271 4.9 0  -23.20000000000304 4.9 0  -23.00000000000338 4.9 0  -22.80000000000372 4.9 0  -22.60000000000406 4.9 0  -22.40000000000439 4.9 0  -22.20000000000473 4.9 0  -22.00000000000507 4.9 0  -21.80000000000541 4.9 0  -21.60000000000575 4.9 0  -21.40000000000608 4.9 0  -21.20000000000642 4.9 0  -21.00000000000676 4.9 0  -20.8000000000071 4.9 0  -20.60000000000744 4.9 0  -20.40000000000777 4.9 0  -20.20000000000811 4.9 0  -20.00000000000845 4.9 0  -19.80000000000879 4.9 0  -19.60000000000912 4.9 0  -19.40000000000946 4.9 0  -19.2000000000098 4.9 0  -19.00000000001039 4.9 0  -18.80000000001108 4.9 0  -18.60000000001231 4.9 0  -18.40000000001371 4.9 0  -18.2000000000154 4.9 0  -18.00000000001716 4.9 0  -17.80000000001892 4.9 0  -17.60000000002067 4.9 0  -17.40000000002243 4.9 0  -17.20000000002419 4.9 0  -17.00000000002595 4.9 0  -16.80000000002771 4.9 0  -16.60000000002947 4.9 0  -16.40000000003123 4.9 0  -16.20000000003299 4.9 0  -16.00000000003472 4.9 0  -15.80000000003612 4.9 0  -15.60000000003748 4.9 0  -15.40000000003853 4.9 0  -15.20000000003958 4.9 0  -15.00000000004063 4.9 0  -14.80000000004168 4.9 0  -14.60000000004273 4.9 0  -14.40000000004377 4.9 0  -14.20000000004482 4.9 0  -14.00000000004587 4.9 0  -13.80000000004692 4.9 0  -13.60000000004797 4.9 0  -13.40000000004902 4.9 0  -13.20000000005007 4.9 0  -13.00000000005111 4.9 0  -12.80000000005216 4.9 0  -12.60000000005321 4.9 0  -12.40000000005426 4.9 0  -12.20000000005531 4.9 0  -12.00000000005636 4.9 0  -11.80000000005741 4.9 0  -11.60000000005846 4.9 0  -11.4000000000595 4.9 0  -11.20000000006055 4.9 0  -11.0000000000616 4.9 0  -10.80000000006265 4.9 0  -10.6000000000637 4.9 0  -10.40000000006475 4.9 0  -10.2000000000658 4.9 0  -10.00000000006684 4.9 0  -9.800000000067891 4.9 0  -9.60000000006894 4.9 0  -9.400000000069989 4.9 0  -9.200000000070727 4.9 0  -9.00000000007142 4.9 0  -8.800000000071787 4.9 0  -8.600000000072125 4.9 0  -8.400000000072467 4.9 0  -8.200000000072805 4.9 0  -8.000000000073143 4.9 0  -7.800000000073481 4.9 0  -7.60000000007382 4.9 0  -7.400000000074154 4.9 0  -7.200000000074493 4.9 0  -7.000000000074831 4.9 0  -6.800000000075173 4.9 0  -6.600000000075511 4.9 0  -6.400000000075849 4.9 0  -6.200000000076187 4.9 0  -6.000000000076525 4.9 0  -5.800000000076867 4.9 0  -5.600000000077205 4.9 0  -5.400000000077544 4.9 0  -5.200000000077882 4.9 0  -5.00000000007822 4.9 0  -4.800000000078558 4.9 0  -4.600000000078897 4.9 0  -4.400000000079235 4.9 0  -4.200000000079573 4.9 0  -4.000000000079908 4.9 0  -3.800000000080246 4.9 0  -3.600000000080588 4.9 0  -3.400000000080926 4.9 0  -3.200000000081264 4.9 0  -3.000000000081606 4.9 0  -2.800000000081944 4.9 0  -2.600000000082282 4.9 0  -2.40000000008262 4.9 0  -2.200000000082959 4.9 0  -2.000000000083297 4.9 0  -1.800000000083635 4.9 0  -1.600000000083973 4.9 0  -1.400000000084312 4.9 0  -1.20000000008465 4.9 0  -1.000000000084988 4.9 0  -0.8000000000853262 4.9 0  -0.6000000000856645 4.9 0  -0.4000000000860027 4.9 0  -0.2000000000863409 4.9 0  -8.667910833537462e-11 4.9 0  0.1999999999129827 4.9 0  0.3999999999126409 4.9 0  0.5999999999123027 4.9 0  0.7999999999119716 4.9 0  0.9999999999116262 4.9 0  1.199999999911295 4.9 0  1.39999999991095 4.9 0  1.599999999910619 4.9 0  1.799999999910273 4.9 0  1.999999999909939 4.9 0  2.199999999909597 4.9 0  2.399999999909262 4.9 0  2.599999999908921 4.9 0  2.799999999908582 4.9 0  2.999999999908244 4.9 0  3.199999999907906 4.9 0  3.399999999907564 4.9 0  3.599999999907226 4.9 0  3.799999999906888 4.9 0  3.999999999906549 4.9 0  4.199999999906218 4.9 0  4.399999999905873 4.9 0  4.599999999905542 4.9 0  4.799999999905197 4.9 0  4.999999999904865 4.9 0  5.19999999990452 4.9 0  5.399999999904182 4.9 0  5.599999999903844 4.9 0  5.799999999903505 4.9 0  5.999999999903167 4.9 0  6.199999999902829 4.9 0  6.399999999902491 4.9 0  6.599999999902153 4.9 0  6.799999999902379 4.9 0  6.999999999902752 4.9 0  7.199999999903724 4.9 0  7.399999999904807 4.9 0  7.59999999990589 4.9 0  7.799999999906966 4.9 0  7.999999999908056 4.9 0  8.199999999909132 4.9 0  8.399999999910214 4.9 0  8.59999999991129 4.9 0  8.79999999991238 4.9 0  8.999999999913456 4.9 0  9.199999999914539 4.9 0  9.399999999915622 4.9 0  9.599999999916704 4.9 0  9.79999999991778 4.9 0  9.99999999991887 4.9 0  10.19999999991995 4.9 0  10.39999999992103 4.9 0  10.59999999992212 4.9 0  10.79999999992319 4.9 0  10.99999999992428 4.9 0  11.19999999992536 4.9 0  11.39999999992644 4.9 0  11.59999999992752 4.9 0  11.7999999999286 4.9 0  11.99999999992968 4.9 0  12.19999999993077 4.9 0  12.39999999993184 4.9 0  12.59999999993293 4.9 0  12.79999999993401 4.9 0  12.99999999993509 4.9 0  13.19999999993617 4.9 0  13.39999999993726 4.9 0  13.59999999993834 4.9 0  13.79999999993942 4.9 0  13.99999999994051 4.9 0  14.19999999994158 4.9 0  14.39999999994266 4.9 0  14.59999999994375 4.9 0  14.79999999994483 4.9 0  14.99999999994591 4.9 0  15.199999999947 4.9 0  15.39999999994807 4.9 0  15.59999999994915 4.9 0  15.79999999995024 4.9 0  15.99999999995132 4.9 0  16.1999999999524 4.9 0  16.39999999995349 4.9 0  16.59999999995456 4.9 0  16.79999999995565 4.9 0  16.99999999995674 4.9 0  17.19999999995781 4.9 0  17.39999999995889 4.9 0  17.59999999995997 4.9 0  17.79999999996106 4.9 0  17.99999999996214 4.9 0  18.19999999996322 4.9 0  18.3999999999643 4.9 0  18.59999999996538 4.9 0  18.79999999996646 4.9 0  18.99999999996755 4.9 0  19.19999999996863 4.9 0  19.39999999996971 4.9 0  19.59999999997079 4.9 0  19.79999999997187 4.9 0  19.99999999997296 4.9 0  20.19999999997404 4.9 0  20.39999999997512 4.9 0  20.5999999999762 4.9 0  20.79999999997728 4.9 0  20.99999999997836 4.9 0  21.19999999997945 4.9 0  21.39999999998052 4.9 0  21.59999999998161 4.9 0  21.79999999998269 4.9 0  21.99999999998377 4.9 0  22.19999999998485 4.9 0  22.39999999998594 4.9 0  22.59999999998701 4.9 0  22.7999999999881 4.9 0  22.99999999998919 4.9 0  23.19999999999026 4.9 0  23.39999999999135 4.9 0  23.59999999999243 4.9 0  23.79999999999351 4.9 0  23.99999999999459 4.9 0  24.19999999999568 4.9 0  24.39999999999675 4.9 0  24.59999999999783 4.9 0  24.79999999999892 4.9 0  25 4.700000000000415 0  25 4.500000000000868 0  25 4.300000000001562 0  25 4.100000000001831 0  25 3.900000000002072 0  25 3.700000000002459 0  25 3.500000000003038 0  25 3.300000000003653 0  25 3.100000000004294 0  25 2.900000000004838 0  25 2.700000000005293 0  25 2.500000000005957 0  25 2.300000000006508 0  25 2.100000000007153 0  25 1.900000000007722 0  25 1.700000000008417 0  25 1.500000000008938 0  25 1.30000000000963 0  25 1.100000000010154 0  25 0.9000000000108268 0  25 0.7000000000114559 0  25 0.5000000000119762 0  25 0.3000000000126564 0  25 0.1000000000131926 0  25 -0.09999999998679243 0  25 -0.2999999999874587 0  25 -0.4999999999878586 0  25 -0.6999999999884441 0  25 -0.899999999988804 0  25 -1.099999999989427 0  25 -1.299999999989749 0  25 -1.499999999990411 0  25 -1.69999999999073 0  25 -1.899999999991396 0  25 -2.099999999991715 0  25 -2.299999999992381 0  25 -2.499999999993047 0  25 -2.699999999993714 0  25 -2.899999999994227 0  25 -3.099999999994698 0  25 -3.299999999994673 0  25 -3.499999999995339 0  25 -3.699999999996004 0  25 -3.89999999999667 0  25 -4.099999999997335 0  25 -4.299999999998002 0  25 -4.499999999998668 0  25 -4.699999999999335 0  24.80000000000034 -4.9 0  24.60000000000068 -4.9 0  24.40000000000101 -4.9 0  24.20000000000135 -4.9 0  24.00000000000169 -4.9 0  23.80000000000203 -4.9 0  23.60000000000237 -4.9 0  23.40000000000271 -4.9 0  23.20000000000304 -4.9 0  23.00000000000338 -4.9 0  22.80000000000372 -4.9 0  22.60000000000406 -4.9 0  22.40000000000439 -4.9 0  22.20000000000473 -4.9 0  22.00000000000507 -4.9 0  21.80000000000541 -4.9 0  21.60000000000575 -4.9 0  21.40000000000608 -4.9 0  21.20000000000642 -4.9 0  21.00000000000676 -4.9 0  20.8000000000071 -4.9 0  20.60000000000744 -4.9 0  20.40000000000777 -4.9 0  20.20000000000811 -4.9 0  20.00000000000845 -4.9 0  19.80000000000879 -4.9 0  19.60000000000912 -4.9 0  19.40000000000946 -4.9 0  19.2000000000098 -4.9 0  19.00000000001039 -4.9 0  18.80000000001108 -4.9 0  18.60000000001231 -4.9 0  18.40000000001371 -4.9 0  18.2000000000154 -4.9 0  18.00000000001716 -4.9 0  17.80000000001892 -4.9 0  17.60000000002067 -4.9 0  17.40000000002243 -4.9 0  17.20000000002419 -4.9 0  17.00000000002595 -4.9 0  16.80000000002771 -4.9 0  16.60000000002947 -4.9 0  16.40000000003123 -4.9 0  16.20000000003299 -4.9 0  16.00000000003472 -4.9 0  15.80000000003612 -4.9 0  15.60000000003748 -4.9 0  15.40000000003853 -4.9 0  15.20000000003958 -4.9 0  15.00000000004063 -4.9 0  14.80000000004168 -4.9 0  14.60000000004273 -4.9 0  14.40000000004377 -4.9 0  14.20000000004482 -4.9 0  14.00000000004587 -4.9 0  13.80000000004692 -4.9 0  13.60000000004797 -4.9 0  13.40000000004902 -4.9 0  13.20000000005007 -4.9 0  13.00000000005111 -4.9 0  12.80000000005216 -4.9 0  12.60000000005321 -4.9 0  12.40000000005426 -4.9 0  12.20000000005531 -4.9 0  12.00000000005636 -4.9 0  11.80000000005741 -4.9 0  11.60000000005846 -4.9 0  11.4000000000595 -4.9 0  11.20000000006055 -4.9 0  11.0000000000616 -4.9 0  10.80000000006265 -4.9 0  10.6000000000637 -4.9 0  10.40000000006475 -4.9 0  10.2000000000658 -4.9 0  10.00000000006684 -4.9 0  9.800000000067891 -4.9 0  9.60000000006894 -4.9 0  9.400000000069989 -4.9 0  9.200000000070727 -4.9 0  9.00000000007142 -4.9 0  8.800000000071787 -4.9 0  8.600000000072125 -4.9 0  8.400000000072467 -4.9 0  8.200000000072805 -4.9 0  8.000000000073143 -4.9 
[...]
<PointData  Vectors="f_7"> 
<DataArray  type="Float64"  Name="f_7"  NumberOfComponents="3" format="ascii">1.1664684447748969e-04 2.7000000000000000e-04 0.0000000000000000e+00  -1.1675149993020435e-04 2.7000000000000000e-04 0.0000000000000000e+00  0.0000000000000000e+00 0.0000000000000000e+00 0.0000000000000000e+00  0.0000000000000000e+00 0.0000000000000000e+00 0.0000000000000000e+00  2.1085168733999953e-05 1.3512689101136441e-04 0.0000000000000000e+00  -2.0652810874429575e-05 1.3291847417908707e-04 0.0000000000000000e+00  1.1506703063341041e-04 2.7000000000000000e-04 0.0000000000000000e+00  1.1347542600457067e-04 2.7000000000000000e-04 0.0000000000000000e+00  1.1187388517320884e-04 2.7000000000000000e-04 0.0000000000000000e+00  1.1023821191845255e-04 2.7000000000000000e-04 0.0000000000000000e+00  1.0859518132639396e-04 2.7000000000000000e-04 0.0000000000000000e+00  1.0692755501955339e-04 2.7000000000000000e-04 0.0000000000000000e+00  1.0525016324241116e-04 2.7000000000000000e-04 0.0000000000000000e+00  1.0355312096731070e-04 2.7000000000000000e-04 0.0000000000000000e+00  1.0185236810471410e-04 2.7000000000000000e-04 0.0000000000000000e+00  1.0013536567918621e-04 2.7000000000000000e-04 0.0000000000000000e+00  9.8409906286925226e-05 2.7000000000000000e-04 0.0000000000000000e+00  9.6684728358402736e-05 2.7000000000000000e-04 0.0000000000000000e+00  9.4940704428579184e-05 2.7000000000000000e-04 0.0000000000000000e+00  9.3199305028375523e-05 2.7000000000000000e-04 0.0000000000000000e+00  9.1457071211574861e-05 2.7000000000000000e-04 0.0000000000000000e+00  8.9715503383442017e-05 2.7000000000000000e-04 0.0000000000000000e+00  8.7962230839508081e-05 2.7000000000000000e-04 0.0000000000000000e+00  8.6216345551604450e-05 2.7000000000000000e-04 0.0000000000000000e+00  8.4476561670030942e-05 2.7000000000000000e-04 0.0000000000000000e+00  8.2731329012558982e-05 2.7000000000000000e-04 0.0000000000000000e+00  8.0993782882354988e-05 2.7000000000000000e-04 0.0000000000000000e+00  7.9262281244540827e-05 2.7000000000000000e-04 0.0000000000000000e+00  7.7539805069238031e-05 2.7000000000000000e-04 0.0000000000000000e+00  7.5827293297180912e-05 2.7000000000000000e-04 0.0000000000000000e+00  7.4111391298893917e-05 2.7000000000000000e-04 0.0000000000000000e+00  7.2408241226411068e-05 2.7000000000000000e-04 0.0000000000000000e+00  7.0716764576520943e-05 2.7000000000000000e-04 0.0000000000000000e+00  6.9032977172408066e-05 2.7000000000000000e-04 0.0000000000000000e+00  6.7359429988700221e-05 2.7000000000000000e-04 0.0000000000000000e+00  6.5697229691839758e-05 2.7000000000000000e-04 0.0000000000000000e+00  6.4043575203253771e-05 2.7000000000000000e-04 0.0000000000000000e+00  6.2401195646464105e-05 2.7000000000000000e-04 0.0000000000000000e+00  6.0770034603686713e-05 2.7000000000000000e-04 0.0000000000000000e+00  5.9151918643767559e-05 2.7000000000000000e-04 0.0000000000000000e+00  5.7537517914445727e-05 2.7000000000000000e-04 0.0000000000000000e+00  5.5937222069042595e-05 2.7000000000000000e-04 0.0000000000000000e+00  5.4345870016642749e-05 2.7000000000000000e-04 0.0000000000000000e+00  5.2766214571654650e-05 2.7000000000000000e-04 0.0000000000000000e+00  5.1192359958948953e-05 2.7000000000000000e-04 0.0000000000000000e+00  4.9628688220555096e-05 2.7000000000000000e-04 0.0000000000000000e+00  4.8074307922482076e-05 2.7000000000000000e-04 0.0000000000000000e+00  4.6527289590601123e-05 2.7000000000000000e-04 0.0000000000000000e+00  4.4986923245922027e-05 2.7000000000000000e-04 0.0000000000000000e+00  4.3452664259162978e-05 2.7000000000000000e-04 0.0000000000000000e+00  4.1923457491878411e-05 2.7000000000000000e-04 0.0000000000000000e+00  4.0399369670234877e-05 2.7000000000000000e-04 0.0000000000000000e+00  3.8879561551070528e-05 2.7000000000000000e-04 0.0000000000000000e+00  3.7362936044997574e-05 2.7000000000000000e-04 0.0000000000000000e+00  3.5849173771328810e-05 2.7000000000000000e-04 0.0000000000000000e+00  3.4337852606528571e-05 2.7000000000000000e-04 0.0000000000000000e+00  3.2827603330533234e-05 2.7000000000000000e-04 0.0000000000000000e+00  3.1317535233823230e-05 2.7000000000000000e-04 0.0000000000000000e+00  2.9808657748536199e-05 2.7000000000000000e-04 0.0000000000000000e+00  2.8299305890198975e-05 2.7000000000000000e-04 0.0000000000000000e+00  2.6791425121783870e-05 2.7000000000000000e-04 0.0000000000000000e+00  2.5283932375916445e-05 2.7000000000000000e-04 0.0000000000000000e+00  2.3777265124685267e-05 2.7000000000000000e-04 0.0000000000000000e+00  2.2272231228428677e-05 2.7000000000000000e-04 0.0000000000000000e+00  2.0771434914896385e-05 2.7000000000000000e-04 0.0000000000000000e+00  1.9274761688079944e-05 2.7000000000000000e-04 0.0000000000000000e+00  1.7790343374109159e-05 2.7000000000000000e-04 0.0000000000000000e+00  1.6315500627041469e-05 2.7000000000000000e-04 0.0000000000000000e+00  1.4855058340765393e-05 2.7000000000000000e-04 0.0000000000000000e+00  1.3411303351112266e-05 2.7000000000000000e-04 0.0000000000000000e+00  1.1990737324113366e-05 2.7000000000000000e-04 0.0000000000000000e+00  1.0603230506015544e-05 2.7000000000000000e-04 0.0000000000000000e+00  9.2522797911995393e-06 2.7000000000000000e-04 0.0000000000000000e+00  7.9526931798839806e-06 2.7000000000000000e-04 0.0000000000000000e+00  6.6943191361213633e-06 2.7000000000000000e-04 0.0000000000000000e+00  5.4802103758257145e-06 2.7000000000000000e-04 0.0000000000000000e+00  4.3354695580603326e-06 2.7000000000000000e-04 0.0000000000000000e+00  3.2715825636803484e-06 2.7000000000000000e-04 0.0000000000000000e+00  2.2803829390643464e-06 2.7000000000000000e-04 0.0000000000000000e+00  1.3543401446366469e-06 2.7000000000000000e-04 0.0000000000000000e+00  5.2862372176137163e-07 2.7000000000000000e-04 0.0000000000000000e+00  -2.2376575594822986e-07 2.7000000000000000e-04 0.0000000000000000e+00  -8.8575326757164395e-07 2.7000000000000000e-04 0.0000000000000000e+00  -1.4522030295489465e-06 2.7000000000000000e-04 0.0000000000000000e+00  -1.9366826400995477e-06 2.7000000000000000e-04 0.0000000000000000e+00  -2.3435249965657847e-06 2.7000000000000000e-04 0.0000000000000000e+00  -2.6688375216454830e-06 2.7000000000000000e-04 0.0000000000000000e+00  -2.9164676899539708e-06 2.7000000000000000e-04 0.0000000000000000e+00  -3.0911805897868262e-06 2.7000000000000000e-04 0.0000000000000000e+00  -3.2010129158065485e-06 2.7000000000000000e-04 0.0000000000000000e+00  -3.2601971303602034e-06 2.7000000000000000e-04 0.0000000000000000e+00  -3.2720771032606948e-06 2.7000000000000000e-04 0.0000000000000000e+00  -3.2339063664951188e-06 2.7000000000000000e-04 0.0000000000000000e+00  -3.1551836566910941e-06 2.7000000000000000e-04 0.0000000000000000e+00  -3.0522447137672988e-06 2.7000000000000000e-04 0.0000000000000000e+00  -2.9247796655497864e-06 2.7000000000000000e-04 0.0000000000000000e+00  -2.7785020782505111e-06 2.7000000000000000e-04 0.0000000000000000e+00  -2.6118827212921389e-06 2.7000000000000000e-04 0.0000000000000000e+00  -2.4381166879596143e-06 2.7000000000000000e-04 0.0000000000000000e+00  -2.2584582369729670e-06 2.7000000000000000e-04 0.0000000000000000e+00  -2.0777652313722617e-06 2.7000000000000000e-04 0.0000000000000000e+00  -1.8944515630437162e-06 2.7000000000000000e-04 0.0000000000000000e+00  -1.7160217959020460e-06 2.7000000000000000e-04 0.0000000000000000e+00  -1.5435281363441403e-06 2.7000000000000000e-04 0.0000000000000000e+00  -1.3780221889380977e-06 2.7000000000000000e-04 0.0000000000000000e+00  -1.2211207824056670e-06 2.7000000000000000e-04 0.0000000000000000e+00  -1.0744835752451716e-06 2.7000000000000000e-04 0.0000000000000000e+00  -9.3943612493688008e-07 2.7000000000000000e-04 0.0000000000000000e+00  -8.1337484701372134e-07 2.7000000000000000e-04 0.0000000000000000e+00  -7.0001461473840800e-07 2.7000000000000000e-04 0.0000000000000000e+00  -5.9890325487381215e-07 2.7000000000000000e-04 0.0000000000000000e+00  -5.1065557078276858e-07 2.7000000000000000e-04 0.0000000000000000e+00  -4.3423718885429490e-07 2.7000000000000000e-04 0.0000000000000000e+00  -3.6918618952623878e-07 2.7000000000000000e-04 0.0000000000000000e+00  -3.1484539500583898e-07 2.7000000000000000e-04 0.0000000000000000e+00  -2.7184984549106583e-07 2.7000000000000000e-04 0.0000000000000000e+00  -2.3884725620290843e-07 2.7000000000000000e-04 0.0000000000000000e+00  -2.1511328160621522e-07 2.7000000000000000e-04 0.0000000000000000e+00  -1.9906517270083631e-07 2.7000000000000000e-04 0.0000000000000000e+00  -1.9116968687256735e-07 2.7000000000000000e-04 0.0000000000000000e+00  -1.8937504038008724e-07 2.7000000000000000e-04 0.0000000000000000e+00  -1.9394373779150785e-07 2.7000000000000000e-04 0.0000000000000000e+00  -2.0300196223141237e-07 2.7000000000000000e-04 0.0000000000000000e+00  -2.1638329448781874e-07 2.7000000000000000e-04 0.0000000000000000e+00  -2.3296535755499999e-07 2.7000000000000000e-04 0.0000000000000000e+00  -2.5184378016435055e-07 2.7000000000000000e-04 0.0000000000000000e+00  -2.7236640059630306e-07 2.7000000000000000e-04 0.0000000000000000e+00  -2.9366695455036286e-07 2.7000000000000000e-04 0.0000000000000000e+00  -3.1458751368203542e-07 2.7000000000000000e-04 0.0000000000000000e+00  -3.3485656363219728e-07 2.7000000000000000e-04 0.0000000000000000e+00  -3.5372619152968340e-07 2.7000000000000000e-04 0.0000000000000000e+00  -3.7061459633773131e-07 2.7000000000000000e-04 0.0000000000000000e+00  -3.8402715124171104e-07 2.7000000000000000e-04 0.0000000000000000e+00  -3.9447274053487367e-07 2.7000000000000000e-04 0.0000000000000000e+00  -4.0111041781766309e-07 2.7000000000000000e-04 0.0000000000000000e+00  -4.0263230126214307e-07 2.7000000000000000e-04 0.0000000000000000e+00  -3.9914331303244497e-07 2.7000000000000000e-04 0.0000000000000000e+00  -3.8993076063880583e-07 2.7000000000000000e-04 0.0000000000000000e+00  -3.7421232953663110e-07 2.7000000000000000e-04 0.0000000000000000e+00  -3.5245353417660210e-07 2.7000000000000000e-04 0.0000000000000000e+00  -3.2410479884103631e-07 2.7000000000000000e-04 0.0000000000000000e+00  -2.8885552762428084e-07 2.7000000000000000e-04 0.0000000000000000e+00  -2.4603234393930031e-07 2.7000000000000000e-04 0.0000000000000000e+00  -1.9572480576890305e-07 2.7000000000000000e-04 0.0000000000000000e+00  -1.3755328334358569e-07 2.7000000000000000e-04 0.0000000000000000e+00  -7.1115841543400480e-08 2.7000000000000000e-04 0.0000000000000000e+00  3.4467104008845982e-09 2.7000000000000000e-04 0.0000000000000000e+00  8.7232272008523127e-08 2.7000000000000000e-04 0.0000000000000000e+00  1.7987138128856405e-07 2.7000000000000000e-04 0.0000000000000000e+00  2.8081010149096738e-07 2.7000000000000000e-04 0.0000000000000000e+00  3.9175985543282543e-07 2.7000000000000000e-04 0.0000000000000000e+00  5.1201663700810709e-07 2.7000000000000000e-04 0.0000000000000000e+00  6.4227421653978671e-07 2.7000000000000000e-04 0.0000000000000000e+00  7.8211239669336144e-07 2.7000000000000000e-04 0.0000000000000000e+00  9.3050218559298554e-07 2.7000000000000000e-04 0.0000000000000000e+00  1.0915688245621093e-06 2.7000000000000000e-04 0.0000000000000000e+00  1.2565142778591146e-06 2.7000000000000000e-04 0.0000000000000000e+00  1.4301118334649685e-06 2.7000000000000000e-04 0.0000000000000000e+00  1.6104999066946381e-06 2.7000000000000000e-04 0.0000000000000000e+00  1.7961601051449416e-06 2.7000000000000000e-04 0.0000000000000000e+00  1.9818770499928100e-06 2.7000000000000000e-04 0.0000000000000000e+00  2.1684089034965740e-06 2.7000000000000000e-04 0.0000000000000000e+00  2.3512638243852673e-06 2.7000000000000000e-04 0.0000000000000000e+00  2.5280413984399301e-06 2.7000000000000000e-04 0.0000000000000000e+00  2.6961112992596638e-06 2.7000000000000000e-04 0.0000000000000000e+00  2.8434032594514108e-06 2.7000000000000000e-04 0.0000000000000000e+00  2.9704750423902921e-06 2.7000000000000000e-04 0.0000000000000000e+00  3.0668462551455395e-06 2.7000000000000000e-04 0.0000000000000000e+00  3.1414815275051471e-06 2.7000000000000000e-04 0.0000000000000000e+00  3.1726753531759639e-06 2.7000000000000000e-04 0.0000000000000000e+00  3.1559316555168848e-06 2.7000000000000000e-04 0.0000000000000000e+00  3.0943427689748446e-06 2.7000000000000000e-04 0.0000000000000000e+00  2.9660730193950696e-06 2.7000000000000000e-04 0.0000000000000000e+00  2.7921277154976291e-06 2.7000000000000000e-04 0.0000000000000000e+00  2.5455203784953750e-06 2.7000000000000000e-04 0.0000000000000000e+00  2.2113521492627256e-06 2.7000000000000000e-04 0.0000000000000000e+00  1.7931186093681939e-06 2.7000000000000000e-04 0.0000000000000000e+00  1.2992648400805521e-06 2.7000000000000000e-04 0.0000000000000000e+00  7.1446787419547428e-07 2.7000000000000000e-04 0.0000000000000000e+00  3.8918739383690002e-08 2.7000000000000000e-04 0.0000000000000000e+00  -7.1973960522986765e-07 2.7000000000000000e-04 0.0000000000000000e+00  -1.5691838932766599e-06 2.7000000000000000e-04 0.0000000000000000e+00  -2.4726436808588418e-06 2.7000000000000000e-04 0.0000000000000000e+00  -3.4800601997029011e-06 2.7000000000000000e-04 0.0000000000000000e+00  -4.5579520778016895e-06 2.7000000000000000e-04 0.0000000000000000e+00  -5.7022773179703332e-06 2.7000000000000000e-04 0.0000000000000000e+00  -6.9107517215222903e-06 2.7000000000000000e-04 0.0000000000000000e+00  -8.1681665264178252e-06 2.7000000000000000e-04 0.0000000000000000e+00  -9.4819383759222603e-06 2.7000000000000000e-04 0.0000000000000000e+00  -1.0829991557888169e-05 2.7000000000000000e-04 0.0000000000000000e+00  -1.2220494795897544e-05 2.7000000000000000e-04 0.0000000000000000e+00  -1.3636515020839958e-05 2.7000000000000000e-04 0.0000000000000000e+00  -1.5075124306635706e-05 2.7000000000000000e-04 0.0000000000000000e+00  -1.6531840597622452e-05 2.7000000000000000e-04 0.0000000000000000e+00  -1.8006629669008649e-05 2.7000000000000000e-04 0.0000000000000000e+00  -1.9489401406922793e-05 2.7000000000000000e-04 0.0000000000000000e+00  -2.0981567841728348e-05 2.7000000000000000e-04 0.0000000000000000e+00  -2.2478324812454325e-05 2.7000000000000000e-04 0.0000000000000000e+00  -2.3978741677553754e-05 2.7000000000000000e-04 0.0000000000000000e+00  -2.5481499340196455e-05 2.7000000000000000e-04 0.0000000000000000e+00  -2.6985358382071500e-05 2.7000000000000000e-04 0.0000000000000000e+00  -2.8489890924219423e-05 2.7000000000000000e-04 0.0000000000000000e+00  -2.9994528461094022e-05 2.7000000000000000e-04 0.0000000000000000e+00  -3.1499628515375180e-05 2.7000000000000000e-04 0.0000000000000000e+00  -3.3005595856720240e-05 2.7000000000000000e-04 0.0000000000000000e+00  -3.4513050726747563e-05 2.7000000000000000e-04 0.0000000000000000e+00  -3.6020746456643131e-05 2.7000000000000000e-04 0.0000000000000000e+00  -3.7530476387261739e-05 2.7000000000000000e-04 0.0000000000000000e+00  -3.9043313429329195e-05 2.7000000000000000e-04 0.0000000000000000e+00  -4.0559468995967702e-05 2.7000000000000000e-04 0.0000000000000000e+00  -4.2080368744547690e-05 2.7000000000000000e-04 0.0000000000000000e+00  -4.3606223453512525e-05 2.7000000000000000e-04 0.0000000000000000e+00  -4.5137160110647368e-05 2.7000000000000000e-04 0.0000000000000000e+00  -4.6674881060465553e-05 2.7000000000000000e-04 0.0000000000000000e+00  -4.8220179347226241e-05 2.7000000000000000e-04 0.0000000000000000e+00  -4.9774069420610985e-05 2.7000000000000000e-04 0.0000000000000000e+00  -5.1336076135616906e-05 2.7000000000000000e-04 0.0000000000000000e+00  -5.2903528407464822e-05 2.7000000000000000e-04 0.0000000000000000e+00  -5.4482424240424140e-05 2.7000000000000000e-04 0.0000000000000000e+00  -5.6071533107843148e-05 2.7000000000000000e-04 0.0000000000000000e+00  -5.7672664467420925e-05 2.7000000000000000e-04 0.0000000000000000e+00  -5.9278346543463119e-05 2.7000000000000000e-04 0.0000000000000000e+00  -6.0897887417281460e-05 2.7000000000000000e-04 0.0000000000000000e+00  -6.2530289942920014e-05 2.7000000000000000e-04 0.0000000000000000e+00  -6.4168919204545880e-05 2.7000000000000000e-04 0.0000000000000000e+00  -6.5820153067315364e-05 2.7000000000000000e-04 0.0000000000000000e+00  -6.7482362196655428e-05 2.7000000000000000e-04 0.0000000000000000e+00  -6.9155959805414357e-05 2.7000000000000000e-04 0.0000000000000000e+00  -7.0838430195933010e-05 2.7000000000000000e-04 0.0000000000000000e+00  -7.2528719195404180e-05 2.7000000000000000e-04 0.0000000000000000e+00  -7.4228609390859112e-05 2.7000000000000000e-04 0.0000000000000000e+00  -7.5938814971157905e-05 2.7000000000000000e-04 0.0000000000000000e+00  -7.7655836866637499e-05 2.7000000000000000e-04 0.0000000000000000e+00  -7.9379392732967336e-05 2.7000000000000000e-04 0.0000000000000000e+00  -8.1109497097106898e-05 2.7000000000000000e-04 0.0000000000000000e+00  -8.2846249295649661e-05 2.7000000000000000e-04 0.0000000000000000e+00  -8.4585036507438027e-05 2.7000000000000000e-04 0.0000000000000000e+00  -8.6329781250399544e-05 2.7000000000000000e-04 0.0000000000000000e+00  -8.8072888286457946e-05 2.7000000000000000e-04 0.0000000000000000e+00  -8.9820111934481775e-05 2.7000000000000000e-04 0.0000000000000000e+00  -9.1567629117592439e-05 2.7000000000000000e-04 0.0000000000000000e+00  -9.3310609084133836e-05 2.7000000000000000e-04 0.0000000000000000e+00  -9.5051527328562593e-05 2.7000000000000000e-04 0.0000000000000000e+00  -9.6788828940346604e-05 2.7000000000000000e-04 0.0000000000000000e+00  -9.8519656043525626e-05 2.7000000000000000e-04 0.0000000000000000e+00  -1.0024137111987813e-04 2.7000000000000000e-04 0.0000000000000000e+00  -1.0195965453332827e-04 2.7000000000000000e-04 0.0000000000000000e+00  -1.0366457031462585e-04 2.7000000000000000e-04 0.0000000000000000e+00  -1.0535703473777380e-04 2.7000000000000000e-04 0.0000000000000000e+00  -1.0703589566962112e-04 2.7000000000000000e-04 0.0000000000000000e+00  -1.0869751476793387e-04 2.7000000000000000e-04 0.0000000000000000e+00  -1.1034440893785771e-04 2.7000000000000000e-04 0.0000000000000000e+00  -1.1197641333347124e-04 2.7000000000000000e-04 0.0000000000000000e+00  -1.1358027781681708e-04 2.7000000000000000e-04 0.0000000000000000e+00  -1.1517134186292707e-04 2.7000000000000000e-04 0.0000000000000000e+00  -1.1671280112635386e-04 2.6532279736013296e-04 0.0000000000000000e+00  -1.1660540061487657e-04 2.6064416016734817e-04 0.0000000000000000e+00  -1.1645386956767686e-04 2.5596390402585597e-04 0.0000000000000000e+00  -1.1621964964437580e-04 2.5128169950803327e-04 0.0000000000000000e+00  -1.1592674391456206e-04 2.4660533160631934e-04 0.0000000000000000e+00  -1.1555416283321043e-04 2.4191366856865377e-04 0.0000000000000000e+00  -1.1512363030325431e-04 2.3723086607421227e-04 0.0000000000000000e+00  -1.1462822595721582e-04 2.3253526413300444e-04 0.0000000000000000e+00  -1.1405835712434514e-04 2.2783738931197642e-04 0.0000000000000000e+00  -1.1341838044268295e-04 2.2314377267927115e-04 0.0000000000000000e+00  -1.1271077111375076e-04 2.1843301395432365e-04 0.0000000000000000e+00  -1.1193063378210985e-04 2.1372091306078381e-04 0.0000000000000000e+00  -1.1108216825804203e-04 2.0899590858727905e-04 0.0000000000000000e+00  -1.1015571321308067e-04 2.0427689510587943e-04 0.0000000000000000e+00  -1.0916036528177761e-04 1.9953317780391081e-04 0.0000000000000000e+00  -1.0808662128948632e-04 1.9477642340536071e-04 0.0000000000000000e+00  -1.0693446041935420e-04 1.9002133153279594e-04 0.0000000000000000e+00  -1.0570617365254129e-04 1.8524142761770562e-04 0.0000000000000000e+00  -1.0439396856957310e-04 1.8046079466146439e-04 0.0000000000000000e+00  -1.0300054161194133e-04 1.7565926424113998e-04 0.0000000000000000e+00  -1.0152794019577215e-04 1.7082663783965949e-04 0.0000000000000000e+00  -9.9962643705534232e-05 1.6599779057863088e-04 0.0000000000000000e+00  -9.8313824018799205e-05 1.6113053182149740e-04 0.0000000000000000e+00  -9.6565917640621972e-05 1.5625265164209487e-04 0.0000000000000000e+00  -9.4735399973684632e-05 1.5133820595575795e-04 0.0000000000000000e+00  -9.2797379442076513e-05 1.4641450133213028e-04 0.0000000000000000e+00  -9.0773009181527967e-05 1.4143543220018838e-04 0.0000000