<?xml version="1.0"?>
<VTKFile type="UnstructuredGrid"  version="0.1"  >
<UnstructuredGrid>
<Piece  NumberOfPoints="16512" NumberOfCells="32424">
<Points>
<DataArray  type="Float64"  NumberOfComponents="3"  format="ascii">-25 4.9 0  25 4.9 0  25 -4.9 0  -25 -4.9 0  -10 0 0  10 0 0  -24.80000000000034 4.9 0  -24.60000000000068 4.9 0  -24.40000000000101 4.9 0  -24.20000000000135 4.9 0  -24.00000000000169 4.9 0  -23.80000000000203 4.9 0  -23.60000000000237 4.9 0  -23.40000000000271 4.9 0  -23.20000000000304 4.9 0  -23.00000000000338 4.9 0  -22.80000000000372 4.9 0  -22.60000000000406 4.9 0  -22.40000000000439 4.9 0  -22.20000000000473 4.9 0  -22.00000000000507 4.9 0  -21.80000000000541 4.9 0  -21.60000000000575 4.9 0  -21.40000000000608 4.9 0  -21.20000000000642 4.9 0  -21.00000000000676 4.9 0  -20.8000000000071 4.9 0  -20.60000000000744 4.9 0  -20.40000000000777 4.9 0  -20.20000000000811 4.9 0  -20.00000000000845 4.9 0  -19.80000000000879 4.9 0  -19.60000000000912 4.9 0  -19.40000000000946 4.9 0  -19.2000000000098 4.9 0  -19.00000000001039 4.9 0  -18.80000000001108 4.9 0  -18.60000000001231 4.9 0  -18.40000000001371 4.9 0  -18.2000000000154 4.9 0  -18.00000000001716 4.9 0  -17.80000000001892 4.9 0  -17.60000000002067 4.9 0  -17.40000000002243 4.9 0  -17.20000000002419 4.9 0  -17.00000000002595 4.9 0  -16.80000000002771 4.9 0  -16.60000000002947 4.9 0  -16.40000000003123 4.9 0  -16.20000000003299 4.9 0  -16.00000000003472 4.9 0  -15.80000000003612 4.9 0  -15.60000000003748 4.9 0  -15.40000000003853 4.9 0  -15.20000000003958 4.9 0  -15.00000000004063 4.9 0  -14.80000000004168 4.9 0  -14.60000000004273 4.9 0  -14.40000000004377 4.9 0  -14.20000000004482 4.9 0  -14.00000000004587 4.9 0  -13.80000000004692 4.9 0  -13.60000000004797 4.9 0  -13.40000000004902 4.9 0  -13.20000000005007 4.9 0  -13.00000000005111 4.9 0  -12.80000000005216 4.9 0  -12.60000000005321 4.9 0  -12.40000000005426 4.9 0  -12.20000000005531 4.9 0  -12.00000000005636 4.9 0  -11.80000000005741 4.9 0  -11.60000000005846 4.9 0  -11.4000000000595 4.9 0  -11.20000000006055 4.9 0  -11.0000000000616 4.9 0  -10.80000000006265 4.9 0  -10.6000000000637 4.9 0  -10.40000000006475 4.9 0  -10.2000000000658 4.9 0  -10.00000000006684 4.9 0  -9.800000000067891 4.9 0  -9.60000000006894 4.9 0  -9.400000000069989 4.9 0  -9.200000000070727 4.9 0  -9.00000000007142 4.9 0  -8.800000000071787 4.9 0  -8.600000000072125 4.9 0  -8.400000000072467 4.9 0  -8.200000000072805 4.9 0  -8.000000000073143 4.9 0  -7.800000000073481 4.9 0  -7.60000000007382 4.9 0  -7.400000000074154 4.9 0  -7.200000000074493 4.9 0  -7.000000000074831 4.9 0  -6.800000000075173 4.9 0  -6.600000000075511 4.9 0  -6.400000000075849 4.9 0  -6.200000000076187 4.9 0  -6.000000000076525 4.9 0  -5.800000000076867 4.9 0  -5.600000000077205 4.9 0  -5.400000000077544 4.9 0  -5.200000000077882 4.9 0  -5.00000000007822 4.9 0  -4.800000000078558 4.9 0  -4.600000000078897 4.9 0  -4.400000000079235 4.9 0  -4.200000000079573 4.9 0  -4.000000000079908 4.9 0  -3.800000000080246 4.9 0  -3.600000000080588 4.9 0  -3.400000000080926 4.9 0  -3.200000000081264 4.9 0  -3.000000000081606 4.9 0  -2.800000000081944 4.9 0  -2.600000000082282 4.9 0  -2.40000000008262 4.9 0  -2.200000000082959 4.9 0  -2.000000000083297 4.9 0  -1.800000000083635 4.9 0  -1.600000000083973 4.9 0  -1.400000000084312 4.9 0  -1.20000000008465 4.9 0  -1.000000000084988 4.9 0  -0.8000000000853262 4.9 0  -0.6000000000856645 4.9 0  -0.4000000000860027 4.9 0  -0.2000000000863409 4.9 0  -8.667910833537462e-11 4.9 0  0.1999999999129827 4.9 0  0.3999999999126409 4.9 0  0.5999999999123027 4.9 0  0.7999999999119716 4.9 0  0.9999999999116262 4.9 0  1.199999999911295 4.9 0  1.39999999991095 4.9 0  1.599999999910619 4.9 0  1.799999999910273 4.9 0  1.999999999909939 4.9 0  2.199999999909597 4.9 0  2.399999999909262 4.9 0  2.599999999908921 4.9 0  2.799999999908582 4.9 0  2.999999999908244 4.9 0  3.199999999907906 4.9 0  3.399999999907564 4.9 0  3.599999999907226 4.9 0  3.799999999906888 4.9 0  3.999999999906549 4.9 0  4.199999999906218 4.9 0  4.399999999905873 4.9 0  4.599999999905542 4.9 0  4.799999999905197 4.9 0  4.999999999904865 4.9 0  5.19999999990452 4.9 0  5.399999999904182 4.9 0  5.599999999903844 4.9 0  5.799999999903505 4.9 0  5.999999999903167 4.9 0  6.199999999902829 4.9 0  6.399999999902491 4.9 0  6.599999999902153 4.9 0  6.799999999902379 4.9 0  6.999999999902752 4.9 0  7.199999999903724 4.9 0  7.399999999904807 4.9 0  7.59999999990589 4.9 0  7.799999999906966 4.9 0  7.999999999908056 4.9 0  8.199999999909132 4.9 0  8.399999999910214 4.9 0  8.59999999991129 4.9 0  8.79999999991238 4.9 0  8.999999999913456 4.9 0  9.199999999914539 4.9 0  9.399999999915622 4.9 0  9.599999999916704 4.9 0  9.79999999991778 4.9 0  9.99999999991887 4.9 0  10.19999999991995 4.9 0  10.39999999992103 4.9 0  10.59999999992212 4.9 0  10.79999999992319 4.9 0  10.99999999992428 4.9 0  11.19999999992536 4.9 0  11.39999999992644 4.9 0  11.59999999992752 4.9 0  11.7999999999286 4.9 0  11.99999999992968 4.9 0  12.19999999993077 4.9 0  12.39999999993184 4.9 0  12.59999999993293 4.9 0  12.79999999993401 4.9 0  12.99999999993509 4.9 0  13.19999999993617 4.9 0  13.39999999993726 4.9 0  13.59999999993834 4.9 0  13.79999999993942 4.9 0  13.99999999994051 4.9 0  14.19999999994158 4.9 0  14.39999999994266 4.9 0  14.59999999994375 4.9 0  14.79999999994483 4.9 0  14.99999999994591 4.9 0  15.199999999947 4.9 0  15.39999999994807 4.9 0  15.59999999994915 4.9 0  15.79999999995024 4.9 0  15.99999999995132 4.9 0  16.1999999999524 4.9 0  16.39999999995349 4.9 0  16.59999999995456 4.9 0  16.79999999995565 4.9 0  16.99999999995674 4.9 0  17.19999999995781 4.9 0  17.39999999995889 4.9 0  17.59999999995997 4.9 0  17.79999999996106 4.9 0  17.99999999996214 4.9 0  18.19999999996322 4.9 0  18.3999999999643 4.9 0  18.59999999996538 4.9 0  18.79999999996646 4.9 0  18.99999999996755 4.9 0  19.19999999996863 4.9 0  19.39999999996971 4.9 0  19.59999999997079 4.9 0  19.79999999997187 4.9 0  19.99999999997296 4.9 0  20.19999999997404 4.9 0  20.39999999997512 4.9 0  20.5999999999762 4.9 0  20.79999999997728 4.9 0  20.99999999997836 4.9 0  21.19999999997945 4.9 0  21.39999999998052 4.9 0  21.59999999998161 4.9 0  21.79999999998269 4.9 0  21.99999999998377 4.9 0  22.19999999998485 4.9 0  22.39999999998594 4.9 0  22.59999999998701 4.9 0  22.7999999999881 4.9 0  22.99999999998919 4.9 0  23.19999999999026 4.9 0  23.39999999999135 4.9 0  23.59999999999243 4.9 0  23.79999999999351 4.9 0  23.99999999999459 4.9 0  24.19999999999568 4.9 0  24.39999999999675 4.9 0  24.59999999999783 4.9 0  24.79999999999892 4.9 0  25 4.700000000000415 0  25 4.500000000000868 0  25 4.300000000001562 0  25 4.100000000001831 0  25 3.900000000002072 0  25 3.700000000002459 0  25 3.500000000003038 0  25 3.300000000003653 0  25 3.100000000004294 0  25 2.900000000004838 0  25 2.700000000005293 0  25 2.500000000005957 0  25 2.300000000006508 0  25 2.100000000007153 0  25 1.900000000007722 0  25 1.700000000008417 0  25 1.500000000008938 0  25 1.30000000000963 0  25 1.100000000010154 0  25 0.9000000000108268 0  25 0.7000000000114559 0  25 0.5000000000119762 0  25 0.3000000000126564 0  25 0.1000000000131926 0  25 -0.09999999998679243 0  25 -0.2999999999874587 0  25 -0.4999999999878586 0  25 -0.6999999999884441 0  25 -0.899999999988804 0  25 -1.099999999989427 0  25 -1.299999999989749 0  25 -1.499999999990411 0  25 -1.69999999999073 0  25 -1.899999999991396 0  25 -2.099999999991715 0  25 -2.299999999992381 0  25 -2.499999999993047 0  25 -2.699999999993714 0  25 -2.899999999994227 0  25 -3.099999999994698 0  25 -3.299999999994673 0  25 -3.499999999995339 0  25 -3.699999999996004 0  25 -3.89999999999667 0  25 -4.099999999997335 0  25 -4.299999999998002 0  25 -4.499999999998668 0  25 -4.699999999999335 0  24.80000000000034 -4.9 0  24.60000000000068 -4.9 0  24.40000000000101 -4.9 0  24.20000000000135 -4.9 0  24.00000000000169 -4.9 0  23.80000000000203 -4.9 0  23.60000000000237 -4.9 0  23.40000000000271 -4.9 0  23.20000000000304 -4.9 0  23.00000000000338 -4.9 0  22.80000000000372 -4.9 0  22.60000000000406 -4.9 0  22.40000000000439 -4.9 0  22.20000000000473 -4.9 0  22.00000000000507 -4.9 0  21.80000000000541 -4.9 0  21.60000000000575 -4.9 0  21.40000000000608 -4.9 0  21.20000000000642 -4.9 0  21.00000000000676 -4.9 0  20.8000000000071 -4.9 0  20.60000000000744 -4.9 0  20.40000000000777 -4.9 0  20.20000000000811 -4.9 0  20.00000000000845 -4.9 0  19.80000000000879 -4.9 0  19.60000000000912 -4.9 0  19.40000000000946 -4.9 0  19.2000000000098 -4.9 0  19.00000000001039 -4.9 0  18.80000000001108 -4.9 0  18.60000000001231 -4.9 0  18.40000000001371 -4.9 0  18.2000000000154 -4.9 0  18.00000000001716 -4.9 0  17.80000000001892 -4.9 0  17.60000000002067 -4.9 0  17.40000000002243 -4.9 0  17.20000000002419 -4.9 0  17.00000000002595 -4.9 0  16.80000000002771 -4.9 0  16.60000000002947 -4.9 0  16.40000000003123 -4.9 0  16.20000000003299 -4.9 0  16.00000000003472 -4.9 0  15.80000000003612 -4.9 0  15.60000000003748 -4.9 0  15.40000000003853 -4.9 0  15.20000000003958 -4.9 0  15.00000000004063 -4.9 0  14.80000000004168 -4.9 0  14.60000000004273 -4.9 0  14.40000000004377 -4.9 0  14.20000000004482 -4.9 0  14.00000000004587 -4.9 0  13.80000000004692 -4.9 0  13.60000000004797 -4.9 0  13.40000000004902 -4.9 0  13.20000000005007 -4.9 0  13.00000000005111 -4.9 0  12.80000000005216 -4.9 0  12.60000000005321 -4.9 0  12.40000000005426 -4.9 0  12.20000000005531 -4.9 0  12.00000000005636 -4.9 0  11.80000000005741 -4.9 0  11.60000000005846 -4.9 0  11.4000000000595 -4.9 0  11.20000000006055 -4.9 0  11.0000000000616 -4.9 0  10.80000000006265 -4.9 0  10.6000000000637 -4.9 0  10.40000000006475 -4.9 0  10.2000000000658 -4.9 0  10.00000000006684 -4.9 0  9.800000000067891 -4.9 0  9.60000000006894 -4.9 0  9.400000000069989 -4.9 0  9.200000000070727 -4.9 0  9.00000000007142 -4.9 0  8.800000000071787 -4.9 0  8.600000000072125 -4.9 0  8.400000000072467 -4.9 0  8.200000000072805 -4.9 0  8.000000000073143 -4.9 
[...]
<PointData  Vectors="f_7"> 
<DataArray  type="Float64"  Name="f_7"  NumberOfComponents="3" format="ascii">1.5891507988412821e-04 3.6999999999999999e-04 0.0000000000000000e+00  -1.5905781236464771e-04 3.6999999999999999e-04 0.0000000000000000e+00  0.0000000000000000e+00 0.0000000000000000e+00 0.0000000000000000e+00  0.0000000000000000e+00 0.0000000000000000e+00 0.0000000000000000e+00  2.8430677133734230e-05 1.8532139108806174e-04 0.0000000000000000e+00  -2.7843573945911062e-05 1.8223840558644904e-04 0.0000000000000000e+00  1.5674613147176439e-04 3.6999999999999999e-04 0.0000000000000000e+00  1.5456116277714181e-04 3.6999999999999999e-04 0.0000000000000000e+00  1.5236268162729992e-04 3.6999999999999999e-04 0.0000000000000000e+00  1.5011783354671420e-04 3.6999999999999999e-04 0.0000000000000000e+00  1.4786289837946285e-04 3.6999999999999999e-04 0.0000000000000000e+00  1.4557449008366163e-04 3.6999999999999999e-04 0.0000000000000000e+00  1.4327268363244653e-04 3.6999999999999999e-04 0.0000000000000000e+00  1.4094403966232006e-04 3.6999999999999999e-04 0.0000000000000000e+00  1.3861021058710364e-04 3.6999999999999999e-04 0.0000000000000000e+00  1.3625412285713399e-04 3.6999999999999999e-04 0.0000000000000000e+00  1.3388634901621523e-04 3.6999999999999999e-04 0.0000000000000000e+00  1.3151876556201906e-04 3.6999999999999999e-04 0.0000000000000000e+00  1.2912535485417603e-04 3.6999999999999999e-04 0.0000000000000000e+00  1.2673528314271500e-04 3.6999999999999999e-04 0.0000000000000000e+00  1.2434385656141073e-04 3.6999999999999999e-04 0.0000000000000000e+00  1.2195308149140785e-04 3.6999999999999999e-04 0.0000000000000000e+00  1.1954614451742632e-04 3.6999999999999999e-04 0.0000000000000000e+00  1.1714894662981602e-04 3.6999999999999999e-04 0.0000000000000000e+00  1.1475980108392653e-04 3.6999999999999999e-04 0.0000000000000000e+00  1.1236294060601466e-04 3.6999999999999999e-04 0.0000000000000000e+00  1.0997620223913846e-04 3.6999999999999999e-04 0.0000000000000000e+00  1.0759736935621107e-04 3.6999999999999999e-04 0.0000000000000000e+00  1.0523046037953733e-04 3.6999999999999999e-04 0.0000000000000000e+00  1.0287676583255150e-04 3.6999999999999999e-04 0.0000000000000000e+00  1.0051815107343089e-04 3.6999999999999999e-04 0.0000000000000000e+00  9.8176450528427095e-05 3.6999999999999999e-04 0.0000000000000000e+00  9.5850234209314471e-05 3.6999999999999999e-04 0.0000000000000000e+00  9.3534074957321060e-05 3.6999999999999999e-04 0.0000000000000000e+00  9.1231421836854314e-05 3.6999999999999999e-04 0.0000000000000000e+00  8.8943735409786662e-05 3.6999999999999999e-04 0.0000000000000000e+00  8.6667200329284969e-05 3.6999999999999999e-04 0.0000000000000000e+00  8.4405492995076880e-05 3.6999999999999999e-04 0.0000000000000000e+00  8.2158565576416899e-05 3.6999999999999999e-04 0.0000000000000000e+00  7.9928789125474734e-05 3.6999999999999999e-04 0.0000000000000000e+00  7.7703608850884041e-05 3.6999999999999999e-04 0.0000000000000000e+00  7.5496937324486769e-05 3.6999999999999999e-04 0.0000000000000000e+00  7.3301808703676136e-05 3.6999999999999999e-04 0.0000000000000000e+00  7.1121863057497457e-05 3.6999999999999999e-04 0.0000000000000000e+00  6.8949218026133341e-05 3.6999999999999999e-04 0.0000000000000000e+00  6.6789657860646384e-05 3.6999999999999999e-04 0.0000000000000000e+00  6.4641936915318149e-05 3.6999999999999999e-04 0.0000000000000000e+00  6.2503409980057561e-05 3.6999999999999999e-04 0.0000000000000000e+00  6.0373071380740179e-05 3.6999999999999999e-04 0.0000000000000000e+00  5.8250161820931559e-05 3.6999999999999999e-04 0.0000000000000000e+00  5.6133193682226391e-05 3.6999999999999999e-04 0.0000000000000000e+00  5.4022183733795694e-05 3.6999999999999999e-04 0.0000000000000000e+00  5.1916019591302311e-05 3.6999999999999999e-04 0.0000000000000000e+00  4.9813035678825351e-05 3.6999999999999999e-04 0.0000000000000000e+00  4.7712754405115512e-05 3.6999999999999999e-04 0.0000000000000000e+00  4.5614743960334486e-05 3.6999999999999999e-04 0.0000000000000000e+00  4.3516942607592296e-05 3.6999999999999999e-04 0.0000000000000000e+00  4.1418251561694919e-05 3.6999999999999999e-04 0.0000000000000000e+00  3.9319908170523966e-05 3.6999999999999999e-04 0.0000000000000000e+00  3.7219311732485634e-05 3.6999999999999999e-04 0.0000000000000000e+00  3.5119984502104928e-05 3.6999999999999999e-04 0.0000000000000000e+00  3.3019793170496930e-05 3.6999999999999999e-04 0.0000000000000000e+00  3.0919537086878376e-05 3.6999999999999999e-04 0.0000000000000000e+00  2.8820213628563124e-05 3.6999999999999999e-04 0.0000000000000000e+00  2.6725690387627383e-05 3.6999999999999999e-04 0.0000000000000000e+00  2.4635573009652480e-05 3.6999999999999999e-04 0.0000000000000000e+00  2.2561883128825856e-05 3.6999999999999999e-04 0.0000000000000000e+00  2.0500457808090367e-05 3.6999999999999999e-04 0.0000000000000000e+00  1.8458237146537273e-05 3.6999999999999999e-04 0.0000000000000000e+00  1.6438435638422228e-05 3.6999999999999999e-04 0.0000000000000000e+00  1.4450094660764496e-05 3.6999999999999999e-04 0.0000000000000000e+00  1.2507933694458938e-05 3.6999999999999999e-04 0.0000000000000000e+00  1.0616439401087657e-05 3.6999999999999999e-04 0.0000000000000000e+00  8.7968120004088354e-06 3.6999999999999999e-04 0.0000000000000000e+00  7.0345938259569290e-06 3.6999999999999999e-04 0.0000000000000000e+00  5.3342353651623270e-06 3.6999999999999999e-04 0.0000000000000000e+00  3.7315959967766833e-06 3.6999999999999999e-04 0.0000000000000000e+00  2.2431606996808872e-06 3.6999999999999999e-04 0.0000000000000000e+00  8.5741320680710253e-07 3.6999999999999999e-04 0.0000000000000000e+00  -4.3638254519942826e-07 3.6999999999999999e-04 0.0000000000000000e+00  -1.5874086143502104e-06 3.6999999999999999e-04 0.0000000000000000e+00  -2.6344462056305224e-06 3.6999999999999999e-04 0.0000000000000000e+00  -3.5528472569450601e-06 3.6999999999999999e-04 0.0000000000000000e+00  -4.3348160953151869e-06 3.6999999999999999e-04 0.0000000000000000e+00  -4.9995845797949443e-06 3.6999999999999999e-04 0.0000000000000000e+00  -5.5531182497708651e-06 3.6999999999999999e-04 0.0000000000000000e+00  -5.9894972795845086e-06 3.6999999999999999e-04 0.0000000000000000e+00  -6.3139500358364232e-06 3.6999999999999999e-04 0.0000000000000000e+00  -6.5330158752123309e-06 3.6999999999999999e-04 0.0000000000000000e+00  -6.6579027477615200e-06 3.6999999999999999e-04 0.0000000000000000e+00  -6.7090940274715834e-06 3.6999999999999999e-04 0.0000000000000000e+00  -6.6911305288750519e-06 3.6999999999999999e-04 0.0000000000000000e+00  -6.5996369297408420e-06 3.6999999999999999e-04 0.0000000000000000e+00  -6.4480922530443920e-06 3.6999999999999999e-04 0.0000000000000000e+00  -6.2603784680131956e-06 3.6999999999999999e-04 0.0000000000000000e+00  -6.0358440619209674e-06 3.6999999999999999e-04 0.0000000000000000e+00  -5.7825998429986675e-06 3.6999999999999999e-04 0.0000000000000000e+00  -5.4982085990658743e-06 3.6999999999999999e-04 0.0000000000000000e+00  -5.2021185480208638e-06 3.6999999999999999e-04 0.0000000000000000e+00  -4.8960722476983645e-06 3.6999999999999999e-04 0.0000000000000000e+00  -4.5872624956004889e-06 3.6999999999999999e-04 0.0000000000000000e+00  -4.2730011221486645e-06 3.6999999999999999e-04 0.0000000000000000e+00  -3.9648943855417430e-06 3.6999999999999999e-04 0.0000000000000000e+00  -3.6643295670246533e-06 3.6999999999999999e-04 0.0000000000000000e+00  -3.3727763191345295e-06 3.6999999999999999e-04 0.0000000000000000e+00  -3.0928080611053952e-06 3.6999999999999999e-04 0.0000000000000000e+00  -2.8270397236003329e-06 3.6999999999999999e-04 0.0000000000000000e+00  -2.5774702816304877e-06 3.6999999999999999e-04 0.0000000000000000e+00  -2.3401678079433489e-06 3.6999999999999999e-04 0.0000000000000000e+00  -2.1210263077013212e-06 3.6999999999999999e-04 0.0000000000000000e+00  -1.9193507663666409e-06 3.6999999999999999e-04 0.0000000000000000e+00  -1.7361221822438788e-06 3.6999999999999999e-04 0.0000000000000000e+00  -1.5700151892390159e-06 3.6999999999999999e-04 0.0000000000000000e+00  -1.4202941516287414e-06 3.6999999999999999e-04 0.0000000000000000e+00  -1.2862553189381157e-06 3.6999999999999999e-04 0.0000000000000000e+00  -1.1688514999525553e-06 3.6999999999999999e-04 0.0000000000000000e+00  -1.0661772861992065e-06 3.6999999999999999e-04 0.0000000000000000e+00  -9.7726970376028136e-07 3.6999999999999999e-04 0.0000000000000000e+00  -8.9976147091650589e-07 3.6999999999999999e-04 0.0000000000000000e+00  -8.3450018936864776e-07 3.6999999999999999e-04 0.0000000000000000e+00  -7.7845895570084440e-07 3.6999999999999999e-04 0.0000000000000000e+00  -7.3207626364511281e-07 3.6999999999999999e-04 0.0000000000000000e+00  -6.9257793762090020e-07 3.6999999999999999e-04 0.0000000000000000e+00  -6.5975685166152583e-07 3.6999999999999999e-04 0.0000000000000000e+00  -6.3193602538948763e-07 3.6999999999999999e-04 0.0000000000000000e+00  -6.0777429326877769e-07 3.6999999999999999e-04 0.0000000000000000e+00  -5.8629503838107981e-07 3.6999999999999999e-04 0.0000000000000000e+00  -5.6619256507547837e-07 3.6999999999999999e-04 0.0000000000000000e+00  -5.4574270406036743e-07 3.6999999999999999e-04 0.0000000000000000e+00  -5.2446872754604410e-07 3.6999999999999999e-04 0.0000000000000000e+00  -5.0126885755702535e-07 3.6999999999999999e-04 0.0000000000000000e+00  -4.7524980664627529e-07 3.6999999999999999e-04 0.0000000000000000e+00  -4.4416451493276077e-07 3.6999999999999999e-04 0.0000000000000000e+00  -4.0872387210976370e-07 3.6999999999999999e-04 0.0000000000000000e+00  -3.6765176606919014e-07 3.6999999999999999e-04 0.0000000000000000e+00  -3.1901469385579489e-07 3.6999999999999999e-04 0.0000000000000000e+00  -2.6290945949584664e-07 3.6999999999999999e-04 0.0000000000000000e+00  -1.9826400745465121e-07 3.6999999999999999e-04 0.0000000000000000e+00  -1.2389568556353018e-07 3.6999999999999999e-04 0.0000000000000000e+00  -4.0473654628945354e-08 3.6999999999999999e-04 0.0000000000000000e+00  5.2779171174055143e-08 3.6999999999999999e-04 0.0000000000000000e+00  1.5637209708041781e-07 3.6999999999999999e-04 0.0000000000000000e+00  2.7129057944814642e-07 3.6999999999999999e-04 0.0000000000000000e+00  3.9739543149633070e-07 3.6999999999999999e-04 0.0000000000000000e+00  5.3521461580818955e-07 3.6999999999999999e-04 0.0000000000000000e+00  6.8532715498387415e-07 3.6999999999999999e-04 0.0000000000000000e+00  8.4744385129146845e-07 3.6999999999999999e-04 0.0000000000000000e+00  1.0231793146422989e-06 3.6999999999999999e-04 0.0000000000000000e+00  1.2119511825647481e-06 3.6999999999999999e-04 0.0000000000000000e+00  1.4127247766189282e-06 3.6999999999999999e-04 0.0000000000000000e+00  1.6280952912151585e-06 3.6999999999999999e-04 0.0000000000000000e+00  1.8569547685985912e-06 3.6999999999999999e-04 0.0000000000000000e+00  2.1000394400022600e-06 3.6999999999999999e-04 0.0000000000000000e+00  2.3567515884348284e-06 3.6999999999999999e-04 0.0000000000000000e+00  2.6255009515093513e-06 3.6999999999999999e-04 0.0000000000000000e+00  2.9121517706840824e-06 3.6999999999999999e-04 0.0000000000000000e+00  3.2036621934226219e-06 3.6999999999999999e-04 0.0000000000000000e+00  3.5069116624529149e-06 3.6999999999999999e-04 0.0000000000000000e+00  3.8191270422549866e-06 3.6999999999999999e-04 0.0000000000000000e+00  4.1381494214168502e-06 3.6999999999999999e-04 0.0000000000000000e+00  4.4558117570799395e-06 3.6999999999999999e-04 0.0000000000000000e+00  4.7735696334096173e-06 3.6999999999999999e-04 0.0000000000000000e+00  5.0846829444006302e-06 3.6999999999999999e-04 0.0000000000000000e+00  5.3856045968689676e-06 3.6999999999999999e-04 0.0000000000000000e+00  5.6725273924961332e-06 3.6999999999999999e-04 0.0000000000000000e+00  5.9277458948286318e-06 3.6999999999999999e-04 0.0000000000000000e+00  6.1522142419152018e-06 3.6999999999999999e-04 0.0000000000000000e+00  6.3307499123019232e-06 3.6999999999999999e-04 0.0000000000000000e+00  6.4769455637090606e-06 3.6999999999999999e-04 0.0000000000000000e+00  6.5589588818633845e-06 3.6999999999999999e-04 0.0000000000000000e+00  6.5705894272004301e-06 3.6999999999999999e-04 0.0000000000000000e+00  6.5167015659060528e-06 3.6999999999999999e-04 0.0000000000000000e+00  6.3657573951040748e-06 3.6999999999999999e-04 0.0000000000000000e+00  6.1486337583349860e-06 3.6999999999999999e-04 0.0000000000000000e+00  5.8263917776426981e-06 3.6999999999999999e-04 0.0000000000000000e+00  5.3779970966141273e-06 3.6999999999999999e-04 0.0000000000000000e+00  4.8085201661206407e-06 3.6999999999999999e-04 0.0000000000000000e+00  4.1308063785400381e-06 3.6999999999999999e-04 0.0000000000000000e+00  3.3230189106211851e-06 3.6999999999999999e-04 0.0000000000000000e+00  2.3857057315113851e-06 3.6999999999999999e-04 0.0000000000000000e+00  1.3302115207530058e-06 3.6999999999999999e-04 0.0000000000000000e+00  1.4541714949881931e-07 3.6999999999999999e-04 0.0000000000000000e+00  -1.1155664352489647e-06 3.6999999999999999e-04 0.0000000000000000e+00  -2.5244677862747664e-06 3.6999999999999999e-04 0.0000000000000000e+00  -4.0328260170507970e-06 3.6999999999999999e-04 0.0000000000000000e+00  -5.6348753323477256e-06 3.6999999999999999e-04 0.0000000000000000e+00  -7.3272090718665277e-06 3.6999999999999999e-04 0.0000000000000000e+00  -9.0880182702888311e-06 3.6999999999999999e-04 0.0000000000000000e+00  -1.0928155558178305e-05 3.6999999999999999e-04 0.0000000000000000e+00  -1.2815778721596441e-05 3.6999999999999999e-04 0.0000000000000000e+00  -1.4762571467202593e-05 3.6999999999999999e-04 0.0000000000000000e+00  -1.6744477621702660e-05 3.6999999999999999e-04 0.0000000000000000e+00  -1.8757267130941835e-05 3.6999999999999999e-04 0.0000000000000000e+00  -2.0794453085596701e-05 3.6999999999999999e-04 0.0000000000000000e+00  -2.2856229406199314e-05 3.6999999999999999e-04 0.0000000000000000e+00  -2.4927992614988946e-05 3.6999999999999999e-04 0.0000000000000000e+00  -2.7011829811303726e-05 3.6999999999999999e-04 0.0000000000000000e+00  -2.9100945608503164e-05 3.6999999999999999e-04 0.0000000000000000e+00  -3.1193964150177601e-05 3.6999999999999999e-04 0.0000000000000000e+00  -3.3288988382004900e-05 3.6999999999999999e-04 0.0000000000000000e+00  -3.5384335292837879e-05 3.6999999999999999e-04 0.0000000000000000e+00  -3.7479333900091602e-05 3.6999999999999999e-04 0.0000000000000000e+00  -3.9573151150027480e-05 3.6999999999999999e-04 0.0000000000000000e+00  -4.1666559280648354e-05 3.6999999999999999e-04 0.0000000000000000e+00  -4.3759751687587845e-05 3.6999999999999999e-04 0.0000000000000000e+00  -4.5853587119789062e-05 3.6999999999999999e-04 0.0000000000000000e+00  -4.7946840218041530e-05 3.6999999999999999e-04 0.0000000000000000e+00  -5.0041531732325181e-05 3.6999999999999999e-04 0.0000000000000000e+00  -5.2139395097718123e-05 3.6999999999999999e-04 0.0000000000000000e+00  -5.4240682809397466e-05 3.6999999999999999e-04 0.0000000000000000e+00  -5.6347368783058461e-05 3.6999999999999999e-04 0.0000000000000000e+00  -5.8459798491909722e-05 3.6999999999999999e-04 0.0000000000000000e+00  -6.0578150844203863e-05 3.6999999999999999e-04 0.0000000000000000e+00  -6.2704864875699786e-05 3.6999999999999999e-04 0.0000000000000000e+00  -6.4841016104634117e-05 3.6999999999999999e-04 0.0000000000000000e+00  -6.6988012952030226e-05 3.6999999999999999e-04 0.0000000000000000e+00  -6.9145283320786688e-05 3.6999999999999999e-04 0.0000000000000000e+00  -7.1309320416623346e-05 3.6999999999999999e-04 0.0000000000000000e+00  -7.3488141871266496e-05 3.6999999999999999e-04 0.0000000000000000e+00  -7.5680215216381467e-05 3.6999999999999999e-04 0.0000000000000000e+00  -7.7887974849655245e-05 3.6999999999999999e-04 0.0000000000000000e+00  -8.0101431684512488e-05 3.6999999999999999e-04 0.0000000000000000e+00  -8.2333101898719144e-05 3.6999999999999999e-04 0.0000000000000000e+00  -8.4581674488968281e-05 3.6999999999999999e-04 0.0000000000000000e+00  -8.6838243101116017e-05 3.6999999999999999e-04 0.0000000000000000e+00  -8.9111457123598856e-05 3.6999999999999999e-04 0.0000000000000000e+00  -9.1399143656501757e-05 3.6999999999999999e-04 0.0000000000000000e+00  -9.3701877243070994e-05 3.6999999999999999e-04 0.0000000000000000e+00  -9.6016246509305410e-05 3.6999999999999999e-04 0.0000000000000000e+00  -9.8340806620570898e-05 3.6999999999999999e-04 0.0000000000000000e+00  -1.0067806302200451e-04 3.6999999999999999e-04 0.0000000000000000e+00  -1.0302898236408960e-04 3.6999999999999999e-04 0.0000000000000000e+00  -1.0538878129420480e-04 3.6999999999999999e-04 0.0000000000000000e+00  -1.0775712915932015e-04 3.6999999999999999e-04 0.0000000000000000e+00  -1.1013403616227544e-04 3.6999999999999999e-04 0.0000000000000000e+00  -1.1251968682122020e-04 3.6999999999999999e-04 0.0000000000000000e+00  -1.1490778879408874e-04 3.6999999999999999e-04 0.0000000000000000e+00  -1.1730368478464214e-04 3.6999999999999999e-04 0.0000000000000000e+00  -1.1969709440498583e-04 3.6999999999999999e-04 0.0000000000000000e+00  -1.2209581858716722e-04 3.6999999999999999e-04 0.0000000000000000e+00  -1.2449468107211521e-04 3.6999999999999999e-04 0.0000000000000000e+00  -1.2688711994915535e-04 3.6999999999999999e-04 0.0000000000000000e+00  -1.2927652270507142e-04 3.6999999999999999e-04 0.0000000000000000e+00  -1.3166079124930251e-04 3.6999999999999999e-04 0.0000000000000000e+00  -1.3403604666429504e-04 3.6999999999999999e-04 0.0000000000000000e+00  -1.3639871303349673e-04 3.6999999999999999e-04 0.0000000000000000e+00  -1.3875654278163786e-04 3.6999999999999999e-04 0.0000000000000000e+00  -1.4109603171247960e-04 3.6999999999999999e-04 0.0000000000000000e+00  -1.4341844967208933e-04 3.6999999999999999e-04 0.0000000000000000e+00  -1.4572224876567414e-04 3.6999999999999999e-04 0.0000000000000000e+00  -1.4800251236181053e-04 3.6999999999999999e-04 0.0000000000000000e+00  -1.5026268160558043e-04 3.6999999999999999e-04 0.0000000000000000e+00  -1.5250254430371676e-04 3.6999999999999999e-04 0.0000000000000000e+00  -1.5470417710897736e-04 3.6999999999999999e-04 0.0000000000000000e+00  -1.5688840339454768e-04 3.6999999999999999e-04 0.0000000000000000e+00  -1.5900537040612376e-04 3.6357755298147774e-04 0.0000000000000000e+00  -1.5885982213153810e-04 3.5715319138428486e-04 0.0000000000000000e+00  -1.5865447865177963e-04 3.5072668137611752e-04 0.0000000000000000e+00  -1.5833704861055136e-04 3.4429759539940494e-04 0.0000000000000000e+00  -1.5794006716338200e-04 3.3787652611252667e-04 0.0000000000000000e+00  -1.5743508492282559e-04 3.3143481670345782e-04 0.0000000000000000e+00  -1.5685152764283259e-04 3.2500526044827456e-04 0.0000000000000000e+00  -1.5617998242507965e-04 3.1855851448786917e-04 0.0000000000000000e+00  -1.5540742922750495e-04 3.1210886460148634e-04 0.0000000000000000e+00  -1.5453980594316087e-04 3.0566520231174591e-04 0.0000000000000000e+00  -1.5358033134845996e-04 2.9919850430022883e-04 0.0000000000000000e+00  -1.5252247859105013e-04 2.9273022394429290e-04 0.0000000000000000e+00  -1.5137177246482949e-04 2.8624469143385923e-04 0.0000000000000000e+00  -1.5011519794913092e-04 2.7976759616955295e-04 0.0000000000000000e+00  -1.4876499381016135e-04 2.7325722406286625e-04 0.0000000000000000e+00  -1.4730821395947440e-04 2.6672945741533055e-04 0.0000000000000000e+00  -1.4574488653724038e-04 2.6020430772039793e-04 0.0000000000000000e+00  -1.4407792679773626e-04 2.5364577665784572e-04 0.0000000000000000e+00  -1.4229689005015425e-04 2.4708663668108094e-04 0.0000000000000000e+00  -1.4040530600321606e-04 2.4049949193501193e-04 0.0000000000000000e+00  -1.3840582056604057e-04 2.3387041832699442e-04 0.0000000000000000e+00  -1.3628022838548941e-04 2.2724693269063895e-04 0.0000000000000000e+00  -1.3404069609565899e-04 2.2057156861179198e-04 0.0000000000000000e+00  -1.3166630144056948e-04 2.1388219794473153e-04 0.0000000000000000e+00  -1.2917909834733344e-04 2.0714348117598395e-04 0.0000000000000000e+00  -1.2654543381832400e-04 2.0039267336528454e-04 0.0000000000000000e+00  -1.2379376143433935e-04 1.9356689196028484e-04 0.0000000000000