<?xml version="1.0"?>
<VTKFile type="UnstructuredGrid"  version="0.1"  >
<UnstructuredGrid>
<Piece  NumberOfPoints="16512" NumberOfCells="32424">
<Points>
<DataArray  type="Float64"  NumberOfComponents="3"  format="ascii">-25 4.9 0  25 4.9 0  25 -4.9 0  -25 -4.9 0  -10 0 0  10 0 0  -24.80000000000034 4.9 0  -24.60000000000068 4.9 0  -24.40000000000101 4.9 0  -24.20000000000135 4.9 0  -24.00000000000169 4.9 0  -23.80000000000203 4.9 0  -23.60000000000237 4.9 0  -23.40000000000271 4.9 0  -23.20000000000304 4.9 0  -23.00000000000338 4.9 0  -22.80000000000372 4.9 0  -22.60000000000406 4.9 0  -22.40000000000439 4.9 0  -22.20000000000473 4.9 0  -22.00000000000507 4.9 0  -21.80000000000541 4.9 0  -21.60000000000575 4.9 0  -21.40000000000608 4.9 0  -21.20000000000642 4.9 0  -21.00000000000676 4.9 0  -20.8000000000071 4.9 0  -20.60000000000744 4.9 0  -20.40000000000777 4.9 0  -20.20000000000811 4.9 0  -20.00000000000845 4.9 0  -19.80000000000879 4.9 0  -19.60000000000912 4.9 0  -19.40000000000946 4.9 0  -19.2000000000098 4.9 0  -19.00000000001039 4.9 0  -18.80000000001108 4.9 0  -18.60000000001231 4.9 0  -18.40000000001371 4.9 0  -18.2000000000154 4.9 0  -18.00000000001716 4.9 0  -17.80000000001892 4.9 0  -17.60000000002067 4.9 0  -17.40000000002243 4.9 0  -17.20000000002419 4.9 0  -17.00000000002595 4.9 0  -16.80000000002771 4.9 0  -16.60000000002947 4.9 0  -16.40000000003123 4.9 0  -16.20000000003299 4.9 0  -16.00000000003472 4.9 0  -15.80000000003612 4.9 0  -15.60000000003748 4.9 0  -15.40000000003853 4.9 0  -15.20000000003958 4.9 0  -15.00000000004063 4.9 0  -14.80000000004168 4.9 0  -14.60000000004273 4.9 0  -14.40000000004377 4.9 0  -14.20000000004482 4.9 0  -14.00000000004587 4.9 0  -13.80000000004692 4.9 0  -13.60000000004797 4.9 0  -13.40000000004902 4.9 0  -13.20000000005007 4.9 0  -13.00000000005111 4.9 0  -12.80000000005216 4.9 0  -12.60000000005321 4.9 0  -12.40000000005426 4.9 0  -12.20000000005531 4.9 0  -12.00000000005636 4.9 0  -11.80000000005741 4.9 0  -11.60000000005846 4.9 0  -11.4000000000595 4.9 0  -11.20000000006055 4.9 0  -11.0000000000616 4.9 0  -10.80000000006265 4.9 0  -10.6000000000637 4.9 0  -10.40000000006475 4.9 0  -10.2000000000658 4.9 0  -10.00000000006684 4.9 0  -9.800000000067891 4.9 0  -9.60000000006894 4.9 0  -9.400000000069989 4.9 0  -9.200000000070727 4.9 0  -9.00000000007142 4.9 0  -8.800000000071787 4.9 0  -8.600000000072125 4.9 0  -8.400000000072467 4.9 0  -8.200000000072805 4.9 0  -8.000000000073143 4.9 0  -7.800000000073481 4.9 0  -7.60000000007382 4.9 0  -7.400000000074154 4.9 0  -7.200000000074493 4.9 0  -7.000000000074831 4.9 0  -6.800000000075173 4.9 0  -6.600000000075511 4.9 0  -6.400000000075849 4.9 0  -6.200000000076187 4.9 0  -6.000000000076525 4.9 0  -5.800000000076867 4.9 0  -5.600000000077205 4.9 0  -5.400000000077544 4.9 0  -5.200000000077882 4.9 0  -5.00000000007822 4.9 0  -4.800000000078558 4.9 0  -4.600000000078897 4.9 0  -4.400000000079235 4.9 0  -4.200000000079573 4.9 0  -4.000000000079908 4.9 0  -3.800000000080246 4.9 0  -3.600000000080588 4.9 0  -3.400000000080926 4.9 0  -3.200000000081264 4.9 0  -3.000000000081606 4.9 0  -2.800000000081944 4.9 0  -2.600000000082282 4.9 0  -2.40000000008262 4.9 0  -2.200000000082959 4.9 0  -2.000000000083297 4.9 0  -1.800000000083635 4.9 0  -1.600000000083973 4.9 0  -1.400000000084312 4.9 0  -1.20000000008465 4.9 0  -1.000000000084988 4.9 0  -0.8000000000853262 4.9 0  -0.6000000000856645 4.9 0  -0.4000000000860027 4.9 0  -0.2000000000863409 4.9 0  -8.667910833537462e-11 4.9 0  0.1999999999129827 4.9 0  0.3999999999126409 4.9 0  0.5999999999123027 4.9 0  0.7999999999119716 4.9 0  0.9999999999116262 4.9 0  1.199999999911295 4.9 0  1.39999999991095 4.9 0  1.599999999910619 4.9 0  1.799999999910273 4.9 0  1.999999999909939 4.9 0  2.199999999909597 4.9 0  2.399999999909262 4.9 0  2.599999999908921 4.9 0  2.799999999908582 4.9 0  2.999999999908244 4.9 0  3.199999999907906 4.9 0  3.399999999907564 4.9 0  3.599999999907226 4.9 0  3.799999999906888 4.9 0  3.999999999906549 4.9 0  4.199999999906218 4.9 0  4.399999999905873 4.9 0  4.599999999905542 4.9 0  4.799999999905197 4.9 0  4.999999999904865 4.9 0  5.19999999990452 4.9 0  5.399999999904182 4.9 0  5.599999999903844 4.9 0  5.799999999903505 4.9 0  5.999999999903167 4.9 0  6.199999999902829 4.9 0  6.399999999902491 4.9 0  6.599999999902153 4.9 0  6.799999999902379 4.9 0  6.999999999902752 4.9 0  7.199999999903724 4.9 0  7.399999999904807 4.9 0  7.59999999990589 4.9 0  7.799999999906966 4.9 0  7.999999999908056 4.9 0  8.199999999909132 4.9 0  8.399999999910214 4.9 0  8.59999999991129 4.9 0  8.79999999991238 4.9 0  8.999999999913456 4.9 0  9.199999999914539 4.9 0  9.399999999915622 4.9 0  9.599999999916704 4.9 0  9.79999999991778 4.9 0  9.99999999991887 4.9 0  10.19999999991995 4.9 0  10.39999999992103 4.9 0  10.59999999992212 4.9 0  10.79999999992319 4.9 0  10.99999999992428 4.9 0  11.19999999992536 4.9 0  11.39999999992644 4.9 0  11.59999999992752 4.9 0  11.7999999999286 4.9 0  11.99999999992968 4.9 0  12.19999999993077 4.9 0  12.39999999993184 4.9 0  12.59999999993293 4.9 0  12.79999999993401 4.9 0  12.99999999993509 4.9 0  13.19999999993617 4.9 0  13.39999999993726 4.9 0  13.59999999993834 4.9 0  13.79999999993942 4.9 0  13.99999999994051 4.9 0  14.19999999994158 4.9 0  14.39999999994266 4.9 0  14.59999999994375 4.9 0  14.79999999994483 4.9 0  14.99999999994591 4.9 0  15.199999999947 4.9 0  15.39999999994807 4.9 0  15.59999999994915 4.9 0  15.79999999995024 4.9 0  15.99999999995132 4.9 0  16.1999999999524 4.9 0  16.39999999995349 4.9 0  16.59999999995456 4.9 0  16.79999999995565 4.9 0  16.99999999995674 4.9 0  17.19999999995781 4.9 0  17.39999999995889 4.9 0  17.59999999995997 4.9 0  17.79999999996106 4.9 0  17.99999999996214 4.9 0  18.19999999996322 4.9 0  18.3999999999643 4.9 0  18.59999999996538 4.9 0  18.79999999996646 4.9 0  18.99999999996755 4.9 0  19.19999999996863 4.9 0  19.39999999996971 4.9 0  19.59999999997079 4.9 0  19.79999999997187 4.9 0  19.99999999997296 4.9 0  20.19999999997404 4.9 0  20.39999999997512 4.9 0  20.5999999999762 4.9 0  20.79999999997728 4.9 0  20.99999999997836 4.9 0  21.19999999997945 4.9 0  21.39999999998052 4.9 0  21.59999999998161 4.9 0  21.79999999998269 4.9 0  21.99999999998377 4.9 0  22.19999999998485 4.9 0  22.39999999998594 4.9 0  22.59999999998701 4.9 0  22.7999999999881 4.9 0  22.99999999998919 4.9 0  23.19999999999026 4.9 0  23.39999999999135 4.9 0  23.59999999999243 4.9 0  23.79999999999351 4.9 0  23.99999999999459 4.9 0  24.19999999999568 4.9 0  24.39999999999675 4.9 0  24.59999999999783 4.9 0  24.79999999999892 4.9 0  25 4.700000000000415 0  25 4.500000000000868 0  25 4.300000000001562 0  25 4.100000000001831 0  25 3.900000000002072 0  25 3.700000000002459 0  25 3.500000000003038 0  25 3.300000000003653 0  25 3.100000000004294 0  25 2.900000000004838 0  25 2.700000000005293 0  25 2.500000000005957 0  25 2.300000000006508 0  25 2.100000000007153 0  25 1.900000000007722 0  25 1.700000000008417 0  25 1.500000000008938 0  25 1.30000000000963 0  25 1.100000000010154 0  25 0.9000000000108268 0  25 0.7000000000114559 0  25 0.5000000000119762 0  25 0.3000000000126564 0  25 0.1000000000131926 0  25 -0.09999999998679243 0  25 -0.2999999999874587 0  25 -0.4999999999878586 0  25 -0.6999999999884441 0  25 -0.899999999988804 0  25 -1.099999999989427 0  25 -1.299999999989749 0  25 -1.499999999990411 0  25 -1.69999999999073 0  25 -1.899999999991396 0  25 -2.099999999991715 0  25 -2.299999999992381 0  25 -2.499999999993047 0  25 -2.699999999993714 0  25 -2.899999999994227 0  25 -3.099999999994698 0  25 -3.299999999994673 0  25 -3.499999999995339 0  25 -3.699999999996004 0  25 -3.89999999999667 0  25 -4.099999999997335 0  25 -4.299999999998002 0  25 -4.499999999998668 0  25 -4.699999999999335 0  24.80000000000034 -4.9 0  24.60000000000068 -4.9 0  24.40000000000101 -4.9 0  24.20000000000135 -4.9 0  24.00000000000169 -4.9 0  23.80000000000203 -4.9 0  23.60000000000237 -4.9 0  23.40000000000271 -4.9 0  23.20000000000304 -4.9 0  23.00000000000338 -4.9 0  22.80000000000372 -4.9 0  22.60000000000406 -4.9 0  22.40000000000439 -4.9 0  22.20000000000473 -4.9 0  22.00000000000507 -4.9 0  21.80000000000541 -4.9 0  21.60000000000575 -4.9 0  21.40000000000608 -4.9 0  21.20000000000642 -4.9 0  21.00000000000676 -4.9 0  20.8000000000071 -4.9 0  20.60000000000744 -4.9 0  20.40000000000777 -4.9 0  20.20000000000811 -4.9 0  20.00000000000845 -4.9 0  19.80000000000879 -4.9 0  19.60000000000912 -4.9 0  19.40000000000946 -4.9 0  19.2000000000098 -4.9 0  19.00000000001039 -4.9 0  18.80000000001108 -4.9 0  18.60000000001231 -4.9 0  18.40000000001371 -4.9 0  18.2000000000154 -4.9 0  18.00000000001716 -4.9 0  17.80000000001892 -4.9 0  17.60000000002067 -4.9 0  17.40000000002243 -4.9 0  17.20000000002419 -4.9 0  17.00000000002595 -4.9 0  16.80000000002771 -4.9 0  16.60000000002947 -4.9 0  16.40000000003123 -4.9 0  16.20000000003299 -4.9 0  16.00000000003472 -4.9 0  15.80000000003612 -4.9 0  15.60000000003748 -4.9 0  15.40000000003853 -4.9 0  15.20000000003958 -4.9 0  15.00000000004063 -4.9 0  14.80000000004168 -4.9 0  14.60000000004273 -4.9 0  14.40000000004377 -4.9 0  14.20000000004482 -4.9 0  14.00000000004587 -4.9 0  13.80000000004692 -4.9 0  13.60000000004797 -4.9 0  13.40000000004902 -4.9 0  13.20000000005007 -4.9 0  13.00000000005111 -4.9 0  12.80000000005216 -4.9 0  12.60000000005321 -4.9 0  12.40000000005426 -4.9 0  12.20000000005531 -4.9 0  12.00000000005636 -4.9 0  11.80000000005741 -4.9 0  11.60000000005846 -4.9 0  11.4000000000595 -4.9 0  11.20000000006055 -4.9 0  11.0000000000616 -4.9 0  10.80000000006265 -4.9 0  10.6000000000637 -4.9 0  10.40000000006475 -4.9 0  10.2000000000658 -4.9 0  10.00000000006684 -4.9 0  9.800000000067891 -4.9 0  9.60000000006894 -4.9 0  9.400000000069989 -4.9 0  9.200000000070727 -4.9 0  9.00000000007142 -4.9 0  8.800000000071787 -4.9 0  8.600000000072125 -4.9 0  8.400000000072467 -4.9 0  8.200000000072805 -4.9 0  8.000000000073143 -4.9 
[...]
<PointData  Vectors="f_7"> 
<DataArray  type="Float64"  Name="f_7"  NumberOfComponents="3" format="ascii">2.0596043244441910e-04 4.8499999999999997e-04 0.0000000000000000e+00  -2.0615316076853311e-04 4.8499999999999997e-04 0.0000000000000000e+00  0.0000000000000000e+00 0.0000000000000000e+00 0.0000000000000000e+00  0.0000000000000000e+00 0.0000000000000000e+00 0.0000000000000000e+00  3.6007611704683559e-05 2.4323514325842944e-04 0.0000000000000000e+00  -3.5242192355921473e-05 2.3910525439866306e-04 0.0000000000000000e+00  2.0310726533903384e-04 4.8499999999999997e-04 0.0000000000000000e+00  2.0023344389210777e-04 4.8499999999999997e-04 0.0000000000000000e+00  1.9734217104271033e-04 4.8499999999999997e-04 0.0000000000000000e+00  1.9439114226005977e-04 4.8499999999999997e-04 0.0000000000000000e+00  1.9142688009729652e-04 4.8499999999999997e-04 0.0000000000000000e+00  1.8841932445729829e-04 4.8499999999999997e-04 0.0000000000000000e+00  1.8539416793434381e-04 4.8499999999999997e-04 0.0000000000000000e+00  1.8233406232367794e-04 4.8499999999999997e-04 0.0000000000000000e+00  1.7926690987130306e-04 4.8499999999999997e-04 0.0000000000000000e+00  1.7617060570784314e-04 4.8499999999999997e-04 0.0000000000000000e+00  1.7305874201149039e-04 4.8499999999999997e-04 0.0000000000000000e+00  1.6994663955588040e-04 4.8499999999999997e-04 0.0000000000000000e+00  1.6680068184554163e-04 4.8499999999999997e-04 0.0000000000000000e+00  1.6365845686639856e-04 4.8499999999999997e-04 0.0000000000000000e+00  1.6051392773415394e-04 4.8499999999999997e-04 0.0000000000000000e+00  1.5736960012829174e-04 4.8499999999999997e-04 0.0000000000000000e+00  1.5420378413094206e-04 4.8499999999999997e-04 0.0000000000000000e+00  1.5104977376353282e-04 4.8499999999999997e-04 0.0000000000000000e+00  1.4790554643319631e-04 4.8499999999999997e-04 0.0000000000000000e+00  1.4475058812188696e-04 4.8499999999999997e-04 0.0000000000000000e+00  1.4160787053434486e-04 4.8499999999999997e-04 0.0000000000000000e+00  1.3847457247982177e-04 4.8499999999999997e-04 0.0000000000000000e+00  1.3535579489777646e-04 4.8499999999999997e-04 0.0000000000000000e+00  1.3225323908322355e-04 4.8499999999999997e-04 0.0000000000000000e+00  1.2914355122389416e-04 4.8499999999999997e-04 0.0000000000000000e+00  1.2605463577197970e-04 4.8499999999999997e-04 0.0000000000000000e+00  1.2298473851658564e-04 4.8499999999999997e-04 0.0000000000000000e+00  1.1992682797788968e-04 4.8499999999999997e-04 0.0000000000000000e+00  1.1688530910541915e-04 4.8499999999999997e-04 0.0000000000000000e+00  1.1386195725893641e-04 4.8499999999999997e-04 0.0000000000000000e+00  1.1085183055577826e-04 4.8499999999999997e-04 0.0000000000000000e+00  1.0785959005026730e-04 4.8499999999999997e-04 0.0000000000000000e+00  1.0488524670294256e-04 4.8499999999999997e-04 0.0000000000000000e+00  1.0193158122545879e-04 4.8499999999999997e-04 0.0000000000000000e+00  9.8982712578328045e-05 4.8499999999999997e-04 0.0000000000000000e+00  9.6056068154537017e-05 4.8499999999999997e-04 0.0000000000000000e+00  9.3142784762627369e-05 4.8499999999999997e-04 0.0000000000000000e+00  9.0247306034362150e-05 4.8499999999999997e-04 0.0000000000000000e+00  8.7359790422303173e-05 4.8499999999999997e-04 0.0000000000000000e+00  8.4487272582956999e-05 4.8499999999999997e-04 0.0000000000000000e+00  8.1628061388032283e-05 4.8499999999999997e-04 0.0000000000000000e+00  7.8778688553907410e-05 4.8499999999999997e-04 0.0000000000000000e+00  7.5937755685855839e-05 4.8499999999999997e-04 0.0000000000000000e+00  7.3104236394157420e-05 4.8499999999999997e-04 0.0000000000000000e+00  7.0276078550125107e-05 4.8499999999999997e-04 0.0000000000000000e+00  6.7453120020236214e-05 4.8499999999999997e-04 0.0000000000000000e+00  6.4633995534455006e-05 4.8499999999999997e-04 0.0000000000000000e+00  6.1816121504622301e-05 4.8499999999999997e-04 0.0000000000000000e+00  5.8998772830101638e-05 4.8499999999999997e-04 0.0000000000000000e+00  5.6181745925615576e-05 4.8499999999999997e-04 0.0000000000000000e+00  5.3361877168327475e-05 4.8499999999999997e-04 0.0000000000000000e+00  5.0538023004737997e-05 4.8499999999999997e-04 0.0000000000000000e+00  4.7711438025704241e-05 4.8499999999999997e-04 0.0000000000000000e+00  4.4877929375528004e-05 4.8499999999999997e-04 0.0000000000000000e+00  4.2044208491968657e-05 4.8499999999999997e-04 0.0000000000000000e+00  3.9205875489088372e-05 4.8499999999999997e-04 0.0000000000000000e+00  3.6364462731486333e-05 4.8499999999999997e-04 0.0000000000000000e+00  3.3520989141028265e-05 4.8499999999999997e-04 0.0000000000000000e+00  3.0681238841840728e-05 4.8499999999999997e-04 0.0000000000000000e+00  2.7844093818337454e-05 4.8499999999999997e-04 0.0000000000000000e+00  2.5027440871326590e-05 4.8499999999999997e-04 0.0000000000000000e+00  2.2224605054968207e-05 4.8499999999999997e-04 0.0000000000000000e+00  1.9445455728851555e-05 4.8499999999999997e-04 0.0000000000000000e+00  1.6694386551881036e-05 4.8499999999999997e-04 0.0000000000000000e+00  1.3983501905058692e-05 4.8499999999999997e-04 0.0000000000000000e+00  1.1335033486917758e-05 4.8499999999999997e-04 0.0000000000000000e+00  8.7540389615543582e-06 4.8499999999999997e-04 0.0000000000000000e+00  6.2704683362461959e-06 4.8499999999999997e-04 0.0000000000000000e+00  3.8640677353218068e-06 4.8499999999999997e-04 0.0000000000000000e+00  1.5413234722506762e-06 4.8499999999999997e-04 0.0000000000000000e+00  -6.4729891592172846e-07 4.8499999999999997e-04 0.0000000000000000e+00  -2.6784026171718762e-06 4.8499999999999997e-04 0.0000000000000000e+00  -4.5678297713701045e-06 4.8499999999999997e-04 0.0000000000000000e+00  -6.3306451445603871e-06 4.8499999999999997e-04 0.0000000000000000e+00  -7.8938244961956016e-06 4.8499999999999997e-04 0.0000000000000000e+00  -9.3125165048860108e-06 4.8499999999999997e-04 0.0000000000000000e+00  -1.0551354491115601e-05 4.8499999999999997e-04 0.0000000000000000e+00  -1.1598166906460351e-05 4.8499999999999997e-04 0.0000000000000000e+00  -1.2479634059892032e-05 4.8499999999999997e-04 0.0000000000000000e+00  -1.3203553604386588e-05 4.8499999999999997e-04 0.0000000000000000e+00  -1.3760618172450017e-05 4.8499999999999997e-04 0.0000000000000000e+00  -1.4157441421743654e-05 4.8499999999999997e-04 0.0000000000000000e+00  -1.4402474390789010e-05 4.8499999999999997e-04 0.0000000000000000e+00  -1.4510702548501207e-05 4.8499999999999997e-04 0.0000000000000000e+00  -1.4511348431656774e-05 4.8499999999999997e-04 0.0000000000000000e+00  -1.4410092980826676e-05 4.8499999999999997e-04 0.0000000000000000e+00  -1.4199454041382539e-05 4.8499999999999997e-04 0.0000000000000000e+00  -1.3898033425358216e-05 4.8499999999999997e-04 0.0000000000000000e+00  -1.3540938185094678e-05 4.8499999999999997e-04 0.0000000000000000e+00  -1.3126601482355817e-05 4.8499999999999997e-04 0.0000000000000000e+00  -1.2666158369004331e-05 4.8499999999999997e-04 0.0000000000000000e+00  -1.2155437550174159e-05 4.8499999999999997e-04 0.0000000000000000e+00  -1.1623426813058433e-05 4.8499999999999997e-04 0.0000000000000000e+00  -1.1072383697967233e-05 4.8499999999999997e-04 0.0000000000000000e+00  -1.0513116660316933e-05 4.8499999999999997e-04 0.0000000000000000e+00  -9.9405128956073885e-06 4.8499999999999997e-04 0.0000000000000000e+00  -9.3736037542832794e-06 4.8499999999999997e-04 0.0000000000000000e+00  -8.8139205803910634e-06 4.8499999999999997e-04 0.0000000000000000e+00  -8.2634050446233439e-06 4.8499999999999997e-04 0.0000000000000000e+00  -7.7265137514861572e-06 4.8499999999999997e-04 0.0000000000000000e+00  -7.2076922219384076e-06 4.8499999999999997e-04 0.0000000000000000e+00  -6.7100741545766943e-06 4.8499999999999997e-04 0.0000000000000000e+00  -6.2276362224569393e-06 4.8499999999999997e-04 0.0000000000000000e+00  -5.7704216034575905e-06 4.8499999999999997e-04 0.0000000000000000e+00  -5.3373892394179078e-06 4.8499999999999997e-04 0.0000000000000000e+00  -4.9303071094762971e-06 4.8499999999999997e-04 0.0000000000000000e+00  -4.5478461832111723e-06 4.8499999999999997e-04 0.0000000000000000e+00  -4.1889341308516677e-06 4.8499999999999997e-04 0.0000000000000000e+00  -3.8532848142486857e-06 4.8499999999999997e-04 0.0000000000000000e+00  -3.5425221745249522e-06 4.8499999999999997e-04 0.0000000000000000e+00  -3.2541256889172460e-06 4.8499999999999997e-04 0.0000000000000000e+00  -2.9869838512947280e-06 4.8499999999999997e-04 0.0000000000000000e+00  -2.7376834412093667e-06 4.8499999999999997e-04 0.0000000000000000e+00  -2.5078993809441584e-06 4.8499999999999997e-04 0.0000000000000000e+00  -2.2930556909738487e-06 4.8499999999999997e-04 0.0000000000000000e+00  -2.0941271607112559e-06 4.8499999999999997e-04 0.0000000000000000e+00  -1.9068040304383937e-06 4.8499999999999997e-04 0.0000000000000000e+00  -1.7309455651733904e-06 4.8499999999999997e-04 0.0000000000000000e+00  -1.5639022387854389e-06 4.8499999999999997e-04 0.0000000000000000e+00  -1.4036080916329916e-06 4.8499999999999997e-04 0.0000000000000000e+00  -1.2484787256126566e-06 4.8499999999999997e-04 0.0000000000000000e+00  -1.0964083433541141e-06 4.8499999999999997e-04 0.0000000000000000e+00  -9.4477955522053963e-07 4.8499999999999997e-04 0.0000000000000000e+00  -7.9241585410391574e-07 4.8499999999999997e-04 0.0000000000000000e+00  -6.3766395708744944e-07 4.8499999999999997e-04 0.0000000000000000e+00  -4.7902344889901432e-07 4.8499999999999997e-04 0.0000000000000000e+00  -3.1290469744708077e-07 4.8499999999999997e-04 0.0000000000000000e+00  -1.4019894431568701e-07 4.8499999999999997e-04 0.0000000000000000e+00  4.1166958882985347e-08 4.8499999999999997e-04 0.0000000000000000e+00  2.3417085833912544e-07 4.8499999999999997e-04 0.0000000000000000e+00  4.3887706023443151e-07 4.8499999999999997e-04 0.0000000000000000e+00  6.5698963087368642e-07 4.8499999999999997e-04 0.0000000000000000e+00  8.9039155363046212e-07 4.8499999999999997e-04 0.0000000000000000e+00  1.1380808616430870e-06 4.8499999999999997e-04 0.0000000000000000e+00  1.4011501105338401e-06 4.8499999999999997e-04 0.0000000000000000e+00  1.6804672270162881e-06 4.8499999999999997e-04 0.0000000000000000e+00  1.9774781644309701e-06 4.8499999999999997e-04 0.0000000000000000e+00  2.2918769398676179e-06 4.8499999999999997e-04 0.0000000000000000e+00  2.6243144591840887e-06 4.8499999999999997e-04 0.0000000000000000e+00  2.9755365235537463e-06 4.8499999999999997e-04 0.0000000000000000e+00  3.3448122352597250e-06 4.8499999999999997e-04 0.0000000000000000e+00  3.7344425032378895e-06 4.8499999999999997e-04 0.0000000000000000e+00  4.1433850803078051e-06 4.8499999999999997e-04 0.0000000000000000e+00  4.5693677925226633e-06 4.8499999999999997e-04 0.0000000000000000e+00  5.0163994686273983e-06 4.8499999999999997e-04 0.0000000000000000e+00  5.4825970164461805e-06 4.8499999999999997e-04 0.0000000000000000e+00  5.9680642657092621e-06 4.8499999999999997e-04 0.0000000000000000e+00  6.4719842415967440e-06 4.8499999999999997e-04 0.0000000000000000e+00  6.9917565943927137e-06 4.8499999999999997e-04 0.0000000000000000e+00  7.5353448358106493e-06 4.8499999999999997e-04 0.0000000000000000e+00  8.0832145608437001e-06 4.8499999999999997e-04 0.0000000000000000e+00  8.6450538789836969e-06 4.8499999999999997e-04 0.0000000000000000e+00  9.2167069352274093e-06 4.8499999999999997e-04 0.0000000000000000e+00  9.7952477585931878e-06 4.8499999999999997e-04 0.0000000000000000e+00  1.0367015138844394e-05 4.8499999999999997e-04 0.0000000000000000e+00  1.0935324489842161e-05 4.8499999999999997e-04 0.0000000000000000e+00  1.1489780118699829e-05 4.8499999999999997e-04 0.0000000000000000e+00  1.2025114929374981e-05 4.8499999999999997e-04 0.0000000000000000e+00  1.2535899176327132e-05 4.8499999999999997e-04 0.0000000000000000e+00  1.2996054309197712e-05 4.8499999999999997e-04 0.0000000000000000e+00  1.3407398087318174e-05 4.8499999999999997e-04 0.0000000000000000e+00  1.3748115114035967e-05 4.8499999999999997e-04 0.0000000000000000e+00  1.4039605507866915e-05 4.8499999999999997e-04 0.0000000000000000e+00  1.4234808180099062e-05 4.8499999999999997e-04 0.0000000000000000e+00  1.4325705150191379e-05 4.8499999999999997e-04 0.0000000000000000e+00  1.4320421363026231e-05 4.8499999999999997e-04 0.0000000000000000e+00  1.4173718936025172e-05 4.8499999999999997e-04 0.0000000000000000e+00  1.3931402986779860e-05 4.8499999999999997e-04 0.0000000000000000e+00  1.3537709134824461e-05 4.8499999999999997e-04 0.0000000000000000e+00  1.2963749137322704e-05 4.8499999999999997e-04 0.0000000000000000e+00  1.2216902213213487e-05 4.8499999999999997e-04 0.0000000000000000e+00  1.1317278890552061e-05 4.8499999999999997e-04 0.0000000000000000e+00  1.0234313788064011e-05 4.8499999999999997e-04 0.0000000000000000e+00  8.9694883848009235e-06 4.8499999999999997e-04 0.0000000000000000e+00  7.5398437707609113e-06 4.8499999999999997e-04 0.0000000000000000e+00  5.9293478877856924e-06 4.8499999999999997e-04 0.0000000000000000e+00  4.2141713416722057e-06 4.8499999999999997e-04 0.0000000000000000e+00  2.2924575047382787e-06 4.8499999999999997e-04 0.0000000000000000e+00  2.3393393094445512e-07 4.8499999999999997e-04 0.0000000000000000e+00  -1.9533175880380693e-06 4.8499999999999997e-04 0.0000000000000000e+00  -4.2641690163570837e-06 4.8499999999999997e-04 0.0000000000000000e+00  -6.6677594697789588e-06 4.8499999999999997e-04 0.0000000000000000e+00  -9.1799932350913901e-06 4.8499999999999997e-04 0.0000000000000000e+00  -1.1755353894027840e-05 4.8499999999999997e-04 0.0000000000000000e+00  -1.4410313297106864e-05 4.8499999999999997e-04 0.0000000000000000e+00  -1.7111391510620052e-05 4.8499999999999997e-04 0.0000000000000000e+00  -1.9852528049887269e-05 4.8499999999999997e-04 0.0000000000000000e+00  -2.2624414940233227e-05 4.8499999999999997e-04 0.0000000000000000e+00  -2.5427913877832888e-05 4.8499999999999997e-04 0.0000000000000000e+00  -2.8242049265072089e-05 4.8499999999999997e-04 0.0000000000000000e+00  -3.1069930283124843e-05 4.8499999999999997e-04 0.0000000000000000e+00  -3.3902178155900678e-05 4.8499999999999997e-04 0.0000000000000000e+00  -3.6736750887119846e-05 4.8499999999999997e-04 0.0000000000000000e+00  -3.9570961138819184e-05 4.8499999999999997e-04 0.0000000000000000e+00  -4.2402657387142672e-05 4.8499999999999997e-04 0.0000000000000000e+00  -4.5230764112263845e-05 4.8499999999999997e-04 0.0000000000000000e+00  -4.8054066681006560e-05 4.8499999999999997e-04 0.0000000000000000e+00  -5.0874262163444505e-05 4.8499999999999997e-04 0.0000000000000000e+00  -5.3690742134025399e-05 4.8499999999999997e-04 0.0000000000000000e+00  -5.6504646179598144e-05 4.8499999999999997e-04 0.0000000000000000e+00  -5.9315550351762776e-05 4.8499999999999997e-04 0.0000000000000000e+00  -6.2125039565560835e-05 4.8499999999999997e-04 0.0000000000000000e+00  -6.4936028633301259e-05 4.8499999999999997e-04 0.0000000000000000e+00  -6.7748757436808670e-05 4.8499999999999997e-04 0.0000000000000000e+00  -7.0565861121833290e-05 4.8499999999999997e-04 0.0000000000000000e+00  -7.3387930788479353e-05 4.8499999999999997e-04 0.0000000000000000e+00  -7.6215211936666718e-05 4.8499999999999997e-04 0.0000000000000000e+00  -7.9051159025477126e-05 4.8499999999999997e-04 0.0000000000000000e+00  -8.1897153027359250e-05 4.8499999999999997e-04 0.0000000000000000e+00  -8.4755082990401888e-05 4.8499999999999997e-04 0.0000000000000000e+00  -8.7624391685154661e-05 4.8499999999999997e-04 0.0000000000000000e+00  -9.0500860585726315e-05 4.8499999999999997e-04 0.0000000000000000e+00  -9.3394498166927910e-05 4.8499999999999997e-04 0.0000000000000000e+00  -9.6303672963146488e-05 4.8499999999999997e-04 0.0000000000000000e+00  -9.9231462983961701e-05 4.8499999999999997e-04 0.0000000000000000e+00  -1.0216539280704698e-04 4.8499999999999997e-04 0.0000000000000000e+00  -1.0512127315773912e-04 4.8499999999999997e-04 0.0000000000000000e+00  -1.0809752179497397e-04 4.8499999999999997e-04 0.0000000000000000e+00  -1.1108292477187144e-04 4.8499999999999997e-04 0.0000000000000000e+00  -1.1408859226275908e-04 4.8499999999999997e-04 0.0000000000000000e+00  -1.1711182377086642e-04 4.8499999999999997e-04 0.0000000000000000e+00  -1.2015339233226837e-04 4.8499999999999997e-04 0.0000000000000000e+00  -1.2320891552121841e-04 4.8499999999999997e-04 0.0000000000000000e+00  -1.2627649835848659e-04 4.8499999999999997e-04 0.0000000000000000e+00  -1.2935957880920532e-04 4.8499999999999997e-04 0.0000000000000000e+00  -1.3245939364561730e-04 4.8499999999999997e-04 0.0000000000000000e+00  -1.3556970205988613e-04 4.8499999999999997e-04 0.0000000000000000e+00  -1.3869020971538120e-04 4.8499999999999997e-04 0.0000000000000000e+00  -1.4182090557359863e-04 4.8499999999999997e-04 0.0000000000000000e+00  -1.4496215120790628e-04 4.8499999999999997e-04 0.0000000000000000e+00  -1.4810577107443241e-04 4.8499999999999997e-04 0.0000000000000000e+00  -1.5125868626370885e-04 4.8499999999999997e-04 0.0000000000000000e+00  -1.5440774042631798e-04 4.8499999999999997e-04 0.0000000000000000e+00  -1.5756294737126586e-04 4.8499999999999997e-04 0.0000000000000000e+00  -1.6071767866263393e-04 4.8499999999999997e-04 0.0000000000000000e+00  -1.6386347776913986e-04 4.8499999999999997e-04 0.0000000000000000e+00  -1.6700477250763601e-04 4.8499999999999997e-04 0.0000000000000000e+00  -1.7013889423611527e-04 4.8499999999999997e-04 0.0000000000000000e+00  -1.7326085196985497e-04 4.8499999999999997e-04 0.0000000000000000e+00  -1.7636605444823098e-04 4.8499999999999997e-04 0.0000000000000000e+00  -1.7946458365416642e-04 4.8499999999999997e-04 0.0000000000000000e+00  -1.8253901789528368e-04 4.8499999999999997e-04 0.0000000000000000e+00  -1.8559105696980995e-04 4.8499999999999997e-04 0.0000000000000000e+00  -1.8861874917052511e-04 4.8499999999999997e-04 0.0000000000000000e+00  -1.9161582276663530e-04 4.8499999999999997e-04 0.0000000000000000e+00  -1.9458676833829651e-04 4.8499999999999997e-04 0.0000000000000000e+00  -1.9753134193024297e-04 4.8499999999999997e-04 0.0000000000000000e+00  -2.0042663500473062e-04 4.8499999999999997e-04 0.0000000000000000e+00  -2.0329944911668998e-04 4.8499999999999997e-04 0.0000000000000000e+00  -2.0608589415702880e-04 4.7654899111135578e-04 0.0000000000000000e+00  -2.0589918496232047e-04 4.6809560058072298e-04 0.0000000000000000e+00  -2.0563579606853820e-04 4.5963956892263092e-04 0.0000000000000000e+00  -2.0522855391893886e-04 4.5118039524582834e-04 0.0000000000000000e+00  -2.0471921073098037e-04 4.4273177491783137e-04 0.0000000000000000e+00  -2.0407126033467038e-04 4.3425689857029445e-04 0.0000000000000000e+00  -2.0332241405069751e-04 4.2579797879177376e-04 0.0000000000000000e+00  -2.0246051019220531e-04 4.1731740138072819e-04 0.0000000000000000e+00  -2.0146879599885174e-04 4.0883354320910524e-04 0.0000000000000000e+00  -2.0035497400205907e-04 4.0035791287870541e-04 0.0000000000000000e+00  -1.9912283132528867e-04 3.9185322449713069e-04 0.0000000000000000e+00  -1.9776426610117399e-04 3.8334710291567108e-04 0.0000000000000000e+00  -1.9628594492570000e-04 3.7481944244033901e-04 0.0000000000000000e+00  -1.9467136895250258e-04 3.6630340826891955e-04 0.0000000000000000e+00  -1.9293601368656579e-04 3.5774519566618570e-04 0.0000000000000000e+00  -1.9106310179081004e-04 3.4916535920508242e-04 0.0000000000000000e+00  -1.8905281174137363e-04 3.4058979842715455e-04 0.0000000000000000e+00  -1.8690840481305637e-04 3.3197203200714003e-04 0.0000000000000000e+00  -1.8461677459926030e-04 3.2335444181517991e-04 0.0000000000000000e+00  -1.8218213464326735e-04 3.1470172423096786e-04 0.0000000000000000e+00  -1.7960755370135392e-04 3.0599575737797797e-04 0.0000000000000000e+00  -1.7686997583640066e-04 2.9729813751290095e-04 0.0000000000000000e+00  -1.7398434326510055e-04 2.8853441564976966e-04 0.0000000000000000e+00  -1.7092424543604340e-04 2.7975370605611070e-04 0.0000000000000000e+00  -1.6771728117207456e-04 2.7091022083751637e-04 0.0000000000000000e+00  -1.6432048338410068e-04 2.6205238031776207e-04 0.0000000000000000e+00  -1.6076981258067953e-04 2.5309850806377600e-04 0.0000000000000000e+0