<?xml version="1.0"?>
<VTKFile type="UnstructuredGrid"  version="0.1"  >
<UnstructuredGrid>
<Piece  NumberOfPoints="16512" NumberOfCells="32424">
<Points>
<DataArray  type="Float64"  NumberOfComponents="3"  format="ascii">-25 4.9 0  25 4.9 0  25 -4.9 0  -25 -4.9 0  -10 0 0  10 0 0  -24.80000000000034 4.9 0  -24.60000000000068 4.9 0  -24.40000000000101 4.9 0  -24.20000000000135 4.9 0  -24.00000000000169 4.9 0  -23.80000000000203 4.9 0  -23.60000000000237 4.9 0  -23.40000000000271 4.9 0  -23.20000000000304 4.9 0  -23.00000000000338 4.9 0  -22.80000000000372 4.9 0  -22.60000000000406 4.9 0  -22.40000000000439 4.9 0  -22.20000000000473 4.9 0  -22.00000000000507 4.9 0  -21.80000000000541 4.9 0  -21.60000000000575 4.9 0  -21.40000000000608 4.9 0  -21.20000000000642 4.9 0  -21.00000000000676 4.9 0  -20.8000000000071 4.9 0  -20.60000000000744 4.9 0  -20.40000000000777 4.9 0  -20.20000000000811 4.9 0  -20.00000000000845 4.9 0  -19.80000000000879 4.9 0  -19.60000000000912 4.9 0  -19.40000000000946 4.9 0  -19.2000000000098 4.9 0  -19.00000000001039 4.9 0  -18.80000000001108 4.9 0  -18.60000000001231 4.9 0  -18.40000000001371 4.9 0  -18.2000000000154 4.9 0  -18.00000000001716 4.9 0  -17.80000000001892 4.9 0  -17.60000000002067 4.9 0  -17.40000000002243 4.9 0  -17.20000000002419 4.9 0  -17.00000000002595 4.9 0  -16.80000000002771 4.9 0  -16.60000000002947 4.9 0  -16.40000000003123 4.9 0  -16.20000000003299 4.9 0  -16.00000000003472 4.9 0  -15.80000000003612 4.9 0  -15.60000000003748 4.9 0  -15.40000000003853 4.9 0  -15.20000000003958 4.9 0  -15.00000000004063 4.9 0  -14.80000000004168 4.9 0  -14.60000000004273 4.9 0  -14.40000000004377 4.9 0  -14.20000000004482 4.9 0  -14.00000000004587 4.9 0  -13.80000000004692 4.9 0  -13.60000000004797 4.9 0  -13.40000000004902 4.9 0  -13.20000000005007 4.9 0  -13.00000000005111 4.9 0  -12.80000000005216 4.9 0  -12.60000000005321 4.9 0  -12.40000000005426 4.9 0  -12.20000000005531 4.9 0  -12.00000000005636 4.9 0  -11.80000000005741 4.9 0  -11.60000000005846 4.9 0  -11.4000000000595 4.9 0  -11.20000000006055 4.9 0  -11.0000000000616 4.9 0  -10.80000000006265 4.9 0  -10.6000000000637 4.9 0  -10.40000000006475 4.9 0  -10.2000000000658 4.9 0  -10.00000000006684 4.9 0  -9.800000000067891 4.9 0  -9.60000000006894 4.9 0  -9.400000000069989 4.9 0  -9.200000000070727 4.9 0  -9.00000000007142 4.9 0  -8.800000000071787 4.9 0  -8.600000000072125 4.9 0  -8.400000000072467 4.9 0  -8.200000000072805 4.9 0  -8.000000000073143 4.9 0  -7.800000000073481 4.9 0  -7.60000000007382 4.9 0  -7.400000000074154 4.9 0  -7.200000000074493 4.9 0  -7.000000000074831 4.9 0  -6.800000000075173 4.9 0  -6.600000000075511 4.9 0  -6.400000000075849 4.9 0  -6.200000000076187 4.9 0  -6.000000000076525 4.9 0  -5.800000000076867 4.9 0  -5.600000000077205 4.9 0  -5.400000000077544 4.9 0  -5.200000000077882 4.9 0  -5.00000000007822 4.9 0  -4.800000000078558 4.9 0  -4.600000000078897 4.9 0  -4.400000000079235 4.9 0  -4.200000000079573 4.9 0  -4.000000000079908 4.9 0  -3.800000000080246 4.9 0  -3.600000000080588 4.9 0  -3.400000000080926 4.9 0  -3.200000000081264 4.9 0  -3.000000000081606 4.9 0  -2.800000000081944 4.9 0  -2.600000000082282 4.9 0  -2.40000000008262 4.9 0  -2.200000000082959 4.9 0  -2.000000000083297 4.9 0  -1.800000000083635 4.9 0  -1.600000000083973 4.9 0  -1.400000000084312 4.9 0  -1.20000000008465 4.9 0  -1.000000000084988 4.9 0  -0.8000000000853262 4.9 0  -0.6000000000856645 4.9 0  -0.4000000000860027 4.9 0  -0.2000000000863409 4.9 0  -8.667910833537462e-11 4.9 0  0.1999999999129827 4.9 0  0.3999999999126409 4.9 0  0.5999999999123027 4.9 0  0.7999999999119716 4.9 0  0.9999999999116262 4.9 0  1.199999999911295 4.9 0  1.39999999991095 4.9 0  1.599999999910619 4.9 0  1.799999999910273 4.9 0  1.999999999909939 4.9 0  2.199999999909597 4.9 0  2.399999999909262 4.9 0  2.599999999908921 4.9 0  2.799999999908582 4.9 0  2.999999999908244 4.9 0  3.199999999907906 4.9 0  3.399999999907564 4.9 0  3.599999999907226 4.9 0  3.799999999906888 4.9 0  3.999999999906549 4.9 0  4.199999999906218 4.9 0  4.399999999905873 4.9 0  4.599999999905542 4.9 0  4.799999999905197 4.9 0  4.999999999904865 4.9 0  5.19999999990452 4.9 0  5.399999999904182 4.9 0  5.599999999903844 4.9 0  5.799999999903505 4.9 0  5.999999999903167 4.9 0  6.199999999902829 4.9 0  6.399999999902491 4.9 0  6.599999999902153 4.9 0  6.799999999902379 4.9 0  6.999999999902752 4.9 0  7.199999999903724 4.9 0  7.399999999904807 4.9 0  7.59999999990589 4.9 0  7.799999999906966 4.9 0  7.999999999908056 4.9 0  8.199999999909132 4.9 0  8.399999999910214 4.9 0  8.59999999991129 4.9 0  8.79999999991238 4.9 0  8.999999999913456 4.9 0  9.199999999914539 4.9 0  9.399999999915622 4.9 0  9.599999999916704 4.9 0  9.79999999991778 4.9 0  9.99999999991887 4.9 0  10.19999999991995 4.9 0  10.39999999992103 4.9 0  10.59999999992212 4.9 0  10.79999999992319 4.9 0  10.99999999992428 4.9 0  11.19999999992536 4.9 0  11.39999999992644 4.9 0  11.59999999992752 4.9 0  11.7999999999286 4.9 0  11.99999999992968 4.9 0  12.19999999993077 4.9 0  12.39999999993184 4.9 0  12.59999999993293 4.9 0  12.79999999993401 4.9 0  12.99999999993509 4.9 0  13.19999999993617 4.9 0  13.39999999993726 4.9 0  13.59999999993834 4.9 0  13.79999999993942 4.9 0  13.99999999994051 4.9 0  14.19999999994158 4.9 0  14.39999999994266 4.9 0  14.59999999994375 4.9 0  14.79999999994483 4.9 0  14.99999999994591 4.9 0  15.199999999947 4.9 0  15.39999999994807 4.9 0  15.59999999994915 4.9 0  15.79999999995024 4.9 0  15.99999999995132 4.9 0  16.1999999999524 4.9 0  16.39999999995349 4.9 0  16.59999999995456 4.9 0  16.79999999995565 4.9 0  16.99999999995674 4.9 0  17.19999999995781 4.9 0  17.39999999995889 4.9 0  17.59999999995997 4.9 0  17.79999999996106 4.9 0  17.99999999996214 4.9 0  18.19999999996322 4.9 0  18.3999999999643 4.9 0  18.59999999996538 4.9 0  18.79999999996646 4.9 0  18.99999999996755 4.9 0  19.19999999996863 4.9 0  19.39999999996971 4.9 0  19.59999999997079 4.9 0  19.79999999997187 4.9 0  19.99999999997296 4.9 0  20.19999999997404 4.9 0  20.39999999997512 4.9 0  20.5999999999762 4.9 0  20.79999999997728 4.9 0  20.99999999997836 4.9 0  21.19999999997945 4.9 0  21.39999999998052 4.9 0  21.59999999998161 4.9 0  21.79999999998269 4.9 0  21.99999999998377 4.9 0  22.19999999998485 4.9 0  22.39999999998594 4.9 0  22.59999999998701 4.9 0  22.7999999999881 4.9 0  22.99999999998919 4.9 0  23.19999999999026 4.9 0  23.39999999999135 4.9 0  23.59999999999243 4.9 0  23.79999999999351 4.9 0  23.99999999999459 4.9 0  24.19999999999568 4.9 0  24.39999999999675 4.9 0  24.59999999999783 4.9 0  24.79999999999892 4.9 0  25 4.700000000000415 0  25 4.500000000000868 0  25 4.300000000001562 0  25 4.100000000001831 0  25 3.900000000002072 0  25 3.700000000002459 0  25 3.500000000003038 0  25 3.300000000003653 0  25 3.100000000004294 0  25 2.900000000004838 0  25 2.700000000005293 0  25 2.500000000005957 0  25 2.300000000006508 0  25 2.100000000007153 0  25 1.900000000007722 0  25 1.700000000008417 0  25 1.500000000008938 0  25 1.30000000000963 0  25 1.100000000010154 0  25 0.9000000000108268 0  25 0.7000000000114559 0  25 0.5000000000119762 0  25 0.3000000000126564 0  25 0.1000000000131926 0  25 -0.09999999998679243 0  25 -0.2999999999874587 0  25 -0.4999999999878586 0  25 -0.6999999999884441 0  25 -0.899999999988804 0  25 -1.099999999989427 0  25 -1.299999999989749 0  25 -1.499999999990411 0  25 -1.69999999999073 0  25 -1.899999999991396 0  25 -2.099999999991715 0  25 -2.299999999992381 0  25 -2.499999999993047 0  25 -2.699999999993714 0  25 -2.899999999994227 0  25 -3.099999999994698 0  25 -3.299999999994673 0  25 -3.499999999995339 0  25 -3.699999999996004 0  25 -3.89999999999667 0  25 -4.099999999997335 0  25 -4.299999999998002 0  25 -4.499999999998668 0  25 -4.699999999999335 0  24.80000000000034 -4.9 0  24.60000000000068 -4.9 0  24.40000000000101 -4.9 0  24.20000000000135 -4.9 0  24.00000000000169 -4.9 0  23.80000000000203 -4.9 0  23.60000000000237 -4.9 0  23.40000000000271 -4.9 0  23.20000000000304 -4.9 0  23.00000000000338 -4.9 0  22.80000000000372 -4.9 0  22.60000000000406 -4.9 0  22.40000000000439 -4.9 0  22.20000000000473 -4.9 0  22.00000000000507 -4.9 0  21.80000000000541 -4.9 0  21.60000000000575 -4.9 0  21.40000000000608 -4.9 0  21.20000000000642 -4.9 0  21.00000000000676 -4.9 0  20.8000000000071 -4.9 0  20.60000000000744 -4.9 0  20.40000000000777 -4.9 0  20.20000000000811 -4.9 0  20.00000000000845 -4.9 0  19.80000000000879 -4.9 0  19.60000000000912 -4.9 0  19.40000000000946 -4.9 0  19.2000000000098 -4.9 0  19.00000000001039 -4.9 0  18.80000000001108 -4.9 0  18.60000000001231 -4.9 0  18.40000000001371 -4.9 0  18.2000000000154 -4.9 0  18.00000000001716 -4.9 0  17.80000000001892 -4.9 0  17.60000000002067 -4.9 0  17.40000000002243 -4.9 0  17.20000000002419 -4.9 0  17.00000000002595 -4.9 0  16.80000000002771 -4.9 0  16.60000000002947 -4.9 0  16.40000000003123 -4.9 0  16.20000000003299 -4.9 0  16.00000000003472 -4.9 0  15.80000000003612 -4.9 0  15.60000000003748 -4.9 0  15.40000000003853 -4.9 0  15.20000000003958 -4.9 0  15.00000000004063 -4.9 0  14.80000000004168 -4.9 0  14.60000000004273 -4.9 0  14.40000000004377 -4.9 0  14.20000000004482 -4.9 0  14.00000000004587 -4.9 0  13.80000000004692 -4.9 0  13.60000000004797 -4.9 0  13.40000000004902 -4.9 0  13.20000000005007 -4.9 0  13.00000000005111 -4.9 0  12.80000000005216 -4.9 0  12.60000000005321 -4.9 0  12.40000000005426 -4.9 0  12.20000000005531 -4.9 0  12.00000000005636 -4.9 0  11.80000000005741 -4.9 0  11.60000000005846 -4.9 0  11.4000000000595 -4.9 0  11.20000000006055 -4.9 0  11.0000000000616 -4.9 0  10.80000000006265 -4.9 0  10.6000000000637 -4.9 0  10.40000000006475 -4.9 0  10.2000000000658 -4.9 0  10.00000000006684 -4.9 0  9.800000000067891 -4.9 0  9.60000000006894 -4.9 0  9.400000000069989 -4.9 0  9.200000000070727 -4.9 0  9.00000000007142 -4.9 0  8.800000000071787 -4.9 0  8.600000000072125 -4.9 0  8.400000000072467 -4.9 0  8.200000000072805 -4.9 0  8.000000000073143 -4.9 
[...]
<PointData  Vectors="f_7"> 
<DataArray  type="Float64"  Name="f_7"  NumberOfComponents="3" format="ascii">2.2499875262177837e-04 5.3499999999999999e-04 0.0000000000000000e+00  -2.2519637770897775e-04 5.3499999999999999e-04 0.0000000000000000e+00  0.0000000000000000e+00 0.0000000000000000e+00 0.0000000000000000e+00  0.0000000000000000e+00 0.0000000000000000e+00 0.0000000000000000e+00  3.8354846050438989e-05 2.6854233463385842e-04 0.0000000000000000e+00  -3.7491442849357429e-05 2.6394832897459264e-04 0.0000000000000000e+00  2.2184204060141091e-04 5.3499999999999999e-04 0.0000000000000000e+00  2.1866286738883830e-04 5.3499999999999999e-04 0.0000000000000000e+00  2.1546468770977900e-04 5.3499999999999999e-04 0.0000000000000000e+00  2.1220154627622816e-04 5.3499999999999999e-04 0.0000000000000000e+00  2.0892379959181633e-04 5.3499999999999999e-04 0.0000000000000000e+00  2.0559884275666223e-04 5.3499999999999999e-04 0.0000000000000000e+00  2.0225443853974618e-04 5.3499999999999999e-04 0.0000000000000000e+00  1.9887170106353035e-04 5.3499999999999999e-04 0.0000000000000000e+00  1.9548096110680056e-04 5.3499999999999999e-04 0.0000000000000000e+00  1.9205809314436516e-04 5.3499999999999999e-04 0.0000000000000000e+00  1.8861784253096272e-04 5.3499999999999999e-04 0.0000000000000000e+00  1.8517687877552579e-04 5.3499999999999999e-04 0.0000000000000000e+00  1.8169857624203257e-04 5.3499999999999999e-04 0.0000000000000000e+00  1.7822379772061117e-04 5.3499999999999999e-04 0.0000000000000000e+00  1.7474599201867068e-04 5.3499999999999999e-04 0.0000000000000000e+00  1.7126780863662751e-04 5.3499999999999999e-04 0.0000000000000000e+00  1.6776564817330488e-04 5.3499999999999999e-04 0.0000000000000000e+00  1.6427562556585213e-04 5.3499999999999999e-04 0.0000000000000000e+00  1.6079568339388224e-04 5.3499999999999999e-04 0.0000000000000000e+00  1.5730334014499715e-04 5.3499999999999999e-04 0.0000000000000000e+00  1.5382355485368723e-04 5.3499999999999999e-04 0.0000000000000000e+00  1.5035329443505090e-04 5.3499999999999999e-04 0.0000000000000000e+00  1.4689803243494475e-04 5.3499999999999999e-04 0.0000000000000000e+00  1.4345965461436399e-04 5.3499999999999999e-04 0.0000000000000000e+00  1.4001278918930780e-04 5.3499999999999999e-04 0.0000000000000000e+00  1.3658755530816460e-04 5.3499999999999999e-04 0.0000000000000000e+00  1.3318212947414381e-04 5.3499999999999999e-04 0.0000000000000000e+00  1.2978883363885406e-04 5.3499999999999999e-04 0.0000000000000000e+00  1.2641242136754771e-04 5.3499999999999999e-04 0.0000000000000000e+00  1.2305472468925526e-04 5.3499999999999999e-04 0.0000000000000000e+00  1.1971035024880544e-04 5.3499999999999999e-04 0.0000000000000000e+00  1.1638429572582048e-04 5.3499999999999999e-04 0.0000000000000000e+00  1.1307664088158275e-04 5.3499999999999999e-04 0.0000000000000000e+00  1.0979015806999969e-04 5.3499999999999999e-04 0.0000000000000000e+00  1.0650785833806821e-04 5.3499999999999999e-04 0.0000000000000000e+00  1.0324822791313284e-04 5.3499999999999999e-04 0.0000000000000000e+00  1.0000173812499595e-04 5.3499999999999999e-04 0.0000000000000000e+00  9.6772995571947393e-05 5.3499999999999999e-04 0.0000000000000000e+00  9.3551591294217148e-05 5.3499999999999999e-04 0.0000000000000000e+00  9.0344791319812412e-05 5.3499999999999999e-04 0.0000000000000000e+00  8.7150680257037539e-05 5.3499999999999999e-04 0.0000000000000000e+00  8.3965435101679824e-05 5.3499999999999999e-04 0.0000000000000000e+00  8.0787442528881714e-05 5.3499999999999999e-04 0.0000000000000000e+00  7.7615544236328402e-05 5.3499999999999999e-04 0.0000000000000000e+00  7.4447385800785023e-05 5.3499999999999999e-04 0.0000000000000000e+00  7.1282623921614094e-05 5.3499999999999999e-04 0.0000000000000000e+00  6.8119833628649241e-05 5.3499999999999999e-04 0.0000000000000000e+00  6.4955804462806568e-05 5.3499999999999999e-04 0.0000000000000000e+00  6.1789645518982561e-05 5.3499999999999999e-04 0.0000000000000000e+00  5.8621457731318235e-05 5.3499999999999999e-04 0.0000000000000000e+00  5.5447324688947284e-05 5.3499999999999999e-04 0.0000000000000000e+00  5.2266236349787693e-05 5.3499999999999999e-04 0.0000000000000000e+00  4.9079225923565177e-05 5.3499999999999999e-04 0.0000000000000000e+00  4.5880978220657717e-05 5.3499999999999999e-04 0.0000000000000000e+00  4.2680710556537970e-05 5.3499999999999999e-04 0.0000000000000000e+00  3.9472130276649939e-05 5.3499999999999999e-04 0.0000000000000000e+00  3.6257334499754368e-05 5.3499999999999999e-04 0.0000000000000000e+00  3.3037134189358981e-05 5.3499999999999999e-04 0.0000000000000000e+00  2.9818479675208880e-05 5.3499999999999999e-04 0.0000000000000000e+00  2.6599553534679556e-05 5.3499999999999999e-04 0.0000000000000000e+00  2.3401880999954231e-05 5.3499999999999999e-04 0.0000000000000000e+00  2.0216990199792012e-05 5.3499999999999999e-04 0.0000000000000000e+00  1.7056347199252490e-05 5.3499999999999999e-04 0.0000000000000000e+00  1.3924904013508006e-05 5.3499999999999999e-04 0.0000000000000000e+00  1.0836023069430398e-05 5.3499999999999999e-04 0.0000000000000000e+00  7.8168431553805289e-06 5.3499999999999999e-04 0.0000000000000000e+00  4.8719955539356559e-06 5.3499999999999999e-04 0.0000000000000000e+00  2.0362238583017322e-06 5.3499999999999999e-04 0.0000000000000000e+00  -7.1384825065384883e-07 5.3499999999999999e-04 0.0000000000000000e+00  -3.3704975872644632e-06 5.3499999999999999e-04 0.0000000000000000e+00  -5.8753608335113811e-06 5.3499999999999999e-04 0.0000000000000000e+00  -8.2011653160820939e-06 5.3499999999999999e-04 0.0000000000000000e+00  -1.0365885627564494e-05 5.3499999999999999e-04 0.0000000000000000e+00  -1.2386922419183375e-05 5.3499999999999999e-04 0.0000000000000000e+00  -1.4178111687153789e-05 5.3499999999999999e-04 0.0000000000000000e+00  -1.5803919584746828e-05 5.3499999999999999e-04 0.0000000000000000e+00  -1.7222630271113470e-05 5.3499999999999999e-04 0.0000000000000000e+00  -1.8418780359156883e-05 5.3499999999999999e-04 0.0000000000000000e+00  -1.9422787412416403e-05 5.3499999999999999e-04 0.0000000000000000e+00  -2.0242934366534679e-05 5.3499999999999999e-04 0.0000000000000000e+00  -2.0867196743779182e-05 5.3499999999999999e-04 0.0000000000000000e+00  -2.1302204845755467e-05 5.3499999999999999e-04 0.0000000000000000e+00  -2.1556666730679006e-05 5.3499999999999999e-04 0.0000000000000000e+00  -2.1646734950479303e-05 5.3499999999999999e-04 0.0000000000000000e+00  -2.1606627449616816e-05 5.3499999999999999e-04 0.0000000000000000e+00  -2.1441759746044831e-05 5.3499999999999999e-04 0.0000000000000000e+00  -2.1141472890021551e-05 5.3499999999999999e-04 0.0000000000000000e+00  -2.0726366289176603e-05 5.3499999999999999e-04 0.0000000000000000e+00  -2.0238974402088430e-05 5.3499999999999999e-04 0.0000000000000000e+00  -1.9676396153886797e-05 5.3499999999999999e-04 0.0000000000000000e+00  -1.9050670454254041e-05 5.3499999999999999e-04 0.0000000000000000e+00  -1.8356053750056033e-05 5.3499999999999999e-04 0.0000000000000000e+00  -1.7628028269544255e-05 5.3499999999999999e-04 0.0000000000000000e+00  -1.6868888502593688e-05 5.3499999999999999e-04 0.0000000000000000e+00  -1.6092099247762167e-05 5.3499999999999999e-04 0.0000000000000000e+00  -1.5289875273810057e-05 5.3499999999999999e-04 0.0000000000000000e+00  -1.4488574023923110e-05 5.3499999999999999e-04 0.0000000000000000e+00  -1.3689362984767426e-05 5.3499999999999999e-04 0.0000000000000000e+00  -1.2894664586903249e-05 5.3499999999999999e-04 0.0000000000000000e+00  -1.2111406903456618e-05 5.3499999999999999e-04 0.0000000000000000e+00  -1.1346127464692445e-05 5.3499999999999999e-04 0.0000000000000000e+00  -1.0603451716057146e-05 5.3499999999999999e-04 0.0000000000000000e+00  -9.8769075444738960e-06 5.3499999999999999e-04 0.0000000000000000e+00  -9.1803253880536157e-06 5.3499999999999999e-04 0.0000000000000000e+00  -8.5132883725427838e-06 5.3499999999999999e-04 0.0000000000000000e+00  -7.8791786019065765e-06 5.3499999999999999e-04 0.0000000000000000e+00  -7.2771572419134765e-06 5.3499999999999999e-04 0.0000000000000000e+00  -6.7075048834947864e-06 5.3499999999999999e-04 0.0000000000000000e+00  -6.1700451550137700e-06 5.3499999999999999e-04 0.0000000000000000e+00  -5.6682981770004329e-06 5.3499999999999999e-04 0.0000000000000000e+00  -5.1995773037094838e-06 5.3499999999999999e-04 0.0000000000000000e+00  -4.7626948529308618e-06 5.3499999999999999e-04 0.0000000000000000e+00  -4.3547092306153108e-06 5.3499999999999999e-04 0.0000000000000000e+00  -3.9776083954246522e-06 5.3499999999999999e-04 0.0000000000000000e+00  -3.6248712909629694e-06 5.3499999999999999e-04 0.0000000000000000e+00  -3.2990728917627904e-06 5.3499999999999999e-04 0.0000000000000000e+00  -2.9934221371091209e-06 5.3499999999999999e-04 0.0000000000000000e+00  -2.7081651912638192e-06 5.3499999999999999e-04 0.0000000000000000e+00  -2.4390668658066304e-06 5.3499999999999999e-04 0.0000000000000000e+00  -2.1830161331893691e-06 5.3499999999999999e-04 0.0000000000000000e+00  -1.9372761276124260e-06 5.3499999999999999e-04 0.0000000000000000e+00  -1.6984342547457120e-06 5.3499999999999999e-04 0.0000000000000000e+00  -1.4625263767502261e-06 5.3499999999999999e-04 0.0000000000000000e+00  -1.2265718533338126e-06 5.3499999999999999e-04 0.0000000000000000e+00  -9.8807026161598451e-07 5.3499999999999999e-04 0.0000000000000000e+00  -7.4429016386456411e-07 5.3499999999999999e-04 0.0000000000000000e+00  -4.8913353621884674e-07 5.3499999999999999e-04 0.0000000000000000e+00  -2.2364070250835886e-07 5.3499999999999999e-04 0.0000000000000000e+00  5.5700102248858507e-08 5.3499999999999999e-04 0.0000000000000000e+00  3.5467634791952349e-07 5.3499999999999999e-04 0.0000000000000000e+00  6.7311949784263299e-07 5.3499999999999999e-04 0.0000000000000000e+00  1.0143285995702135e-06 5.3499999999999999e-04 0.0000000000000000e+00  1.3817568079779435e-06 5.3499999999999999e-04 0.0000000000000000e+00  1.7734066147377448e-06 5.3499999999999999e-04 0.0000000000000000e+00  2.1923471893996392e-06 5.3499999999999999e-04 0.0000000000000000e+00  2.6390495837591656e-06 5.3499999999999999e-04 0.0000000000000000e+00  3.1163370356564784e-06 5.3499999999999999e-04 0.0000000000000000e+00  3.6231430025175981e-06 5.3499999999999999e-04 0.0000000000000000e+00  4.1605324491570294e-06 5.3499999999999999e-04 0.0000000000000000e+00  4.7287145624305818e-06 5.3499999999999999e-04 0.0000000000000000e+00  5.3265928377934311e-06 5.3499999999999999e-04 0.0000000000000000e+00  5.9558045838705745e-06 5.3499999999999999e-04 0.0000000000000000e+00  6.6135743899108626e-06 5.3499999999999999e-04 0.0000000000000000e+00  7.2969287341268930e-06 5.3499999999999999e-04 0.0000000000000000e+00  8.0083596400719923e-06 5.3499999999999999e-04 0.0000000000000000e+00  8.7448764796704696e-06 5.3499999999999999e-04 0.0000000000000000e+00  9.5049176553976053e-06 5.3499999999999999e-04 0.0000000000000000e+00  1.0285793881303817e-05 5.3499999999999999e-04 0.0000000000000000e+00  1.1083180806173228e-05 5.3499999999999999e-04 0.0000000000000000e+00  1.1904388491121207e-05 5.3499999999999999e-04 0.0000000000000000e+00  1.2725224166403407e-05 5.3499999999999999e-04 0.0000000000000000e+00  1.3555186427404508e-05 5.3499999999999999e-04 0.0000000000000000e+00  1.4388703190733475e-05 5.3499999999999999e-04 0.0000000000000000e+00  1.5222704432715858e-05 5.3499999999999999e-04 0.0000000000000000e+00  1.6036693476095240e-05 5.3499999999999999e-04 0.0000000000000000e+00  1.6837212167802175e-05 5.3499999999999999e-04 0.0000000000000000e+00  1.7610545074928375e-05 5.3499999999999999e-04 0.0000000000000000e+00  1.8350167395613249e-05 5.3499999999999999e-04 0.0000000000000000e+00  1.9049875520338201e-05 5.3499999999999999e-04 0.0000000000000000e+00  1.9678236193521075e-05 5.3499999999999999e-04 0.0000000000000000e+00  2.0238101897643597e-05 5.3499999999999999e-04 0.0000000000000000e+00  2.0704231726197537e-05 5.3499999999999999e-04 0.0000000000000000e+00  2.1105792863091247e-05 5.3499999999999999e-04 0.0000000000000000e+00  2.1384751375164379e-05 5.3499999999999999e-04 0.0000000000000000e+00  2.1533525820935233e-05 5.3499999999999999e-04 0.0000000000000000e+00  2.1563963716340240e-05 5.3499999999999999e-04 0.0000000000000000e+00  2.1422660776132432e-05 5.3499999999999999e-04 0.0000000000000000e+00  2.1166461256245676e-05 5.3499999999999999e-04 0.0000000000000000e+00  2.0729613612058873e-05 5.3499999999999999e-04 0.0000000000000000e+00  2.0079880510979123e-05 5.3499999999999999e-04 0.0000000000000000e+00  1.9226484962499499e-05 5.3499999999999999e-04 0.0000000000000000e+00  1.8195436716582779e-05 5.3499999999999999e-04 0.0000000000000000e+00  1.6951650137501456e-05 5.3499999999999999e-04 0.0000000000000000e+00  1.5497787433905994e-05 5.3499999999999999e-04 0.0000000000000000e+00  1.3854903079795550e-05 5.3499999999999999e-04 0.0000000000000000e+00  1.2003985240628118e-05 5.3499999999999999e-04 0.0000000000000000e+00  1.0034887319951346e-05 5.3499999999999999e-04 0.0000000000000000e+00  7.8286555905958404e-06 5.3499999999999999e-04 0.0000000000000000e+00  5.4676930464711466e-06 5.3499999999999999e-04 0.0000000000000000e+00  2.9613004115349858e-06 5.3499999999999999e-04 0.0000000000000000e+00  3.1570563378073388e-07 5.3499999999999999e-04 0.0000000000000000e+00  -2.4332567954321077e-06 5.3499999999999999e-04 0.0000000000000000e+00  -5.3046710183508088e-06 5.3499999999999999e-04 0.0000000000000000e+00  -8.2452103251513346e-06 5.3499999999999999e-04 0.0000000000000000e+00  -1.1273968237129001e-05 5.3499999999999999e-04 0.0000000000000000e+00  -1.4352704891158549e-05 5.3499999999999999e-04 0.0000000000000000e+00  -1.7474313322022853e-05 5.3499999999999999e-04 0.0000000000000000e+00  -2.0627923694789474e-05 5.3499999999999999e-04 0.0000000000000000e+00  -2.3815108930197231e-05 5.3499999999999999e-04 0.0000000000000000e+00  -2.7011283620682383e-05 5.3499999999999999e-04 0.0000000000000000e+00  -3.0220223113927604e-05 5.3499999999999999e-04 0.0000000000000000e+00  -3.3431330506287654e-05 5.3499999999999999e-04 0.0000000000000000e+00  -3.6642159660638110e-05 5.3499999999999999e-04 0.0000000000000000e+00  -3.9849632840546463e-05 5.3499999999999999e-04 0.0000000000000000e+00  -4.3051494010904922e-05 5.3499999999999999e-04 0.0000000000000000e+00  -4.6246426356935065e-05 5.3499999999999999e-04 0.0000000000000000e+00  -4.9433020806647128e-05 5.3499999999999999e-04 0.0000000000000000e+00  -5.2613737546006750e-05 5.3499999999999999e-04 0.0000000000000000e+00  -5.5787244907790790e-05 5.3499999999999999e-04 0.0000000000000000e+00  -5.8954771838372504e-05 5.3499999999999999e-04 0.0000000000000000e+00  -6.2116920358494074e-05 5.3499999999999999e-04 0.0000000000000000e+00  -6.5274509554255790e-05 5.3499999999999999e-04 0.0000000000000000e+00  -6.8431343535499238e-05 5.3499999999999999e-04 0.0000000000000000e+00  -7.1587605796712765e-05 5.3499999999999999e-04 0.0000000000000000e+00  -7.4746247962558830e-05 5.3499999999999999e-04 0.0000000000000000e+00  -7.7908049524477360e-05 5.3499999999999999e-04 0.0000000000000000e+00  -8.1073289930126227e-05 5.3499999999999999e-04 0.0000000000000000e+00  -8.4246012350341974e-05 5.3499999999999999e-04 0.0000000000000000e+00  -8.7427713049059605e-05 5.3499999999999999e-04 0.0000000000000000e+00  -9.0620512485021728e-05 5.3499999999999999e-04 0.0000000000000000e+00  -9.3823968151519240e-05 5.3499999999999999e-04 0.0000000000000000e+00  -9.7033771575233356e-05 5.3499999999999999e-04 0.0000000000000000e+00  -1.0026050165821755e-04 5.3499999999999999e-04 0.0000000000000000e+00  -1.0350269944730608e-04 5.3499999999999999e-04 0.0000000000000000e+00  -1.0676365498459016e-04 5.3499999999999999e-04 0.0000000000000000e+00  -1.1003017343125926e-04 5.3499999999999999e-04 0.0000000000000000e+00  -1.1331914347866824e-04 5.3499999999999999e-04 0.0000000000000000e+00  -1.1662894293344160e-04 5.3499999999999999e-04 0.0000000000000000e+00  -1.1994762556294734e-04 5.3499999999999999e-04 0.0000000000000000e+00  -1.2328723218105693e-04 5.3499999999999999e-04 0.0000000000000000e+00  -1.2664491865226087e-04 5.3499999999999999e-04 0.0000000000000000e+00  -1.3002155491104110e-04 5.3499999999999999e-04 0.0000000000000000e+00  -1.3341238870353777e-04 5.3499999999999999e-04 0.0000000000000000e+00  -1.3681532783248811e-04 5.3499999999999999e-04 0.0000000000000000e+00  -1.4023430336733623e-04 5.3499999999999999e-04 0.0000000000000000e+00  -1.4367065077862620e-04 5.3499999999999999e-04 0.0000000000000000e+00  -1.4711751366410921e-04 5.3499999999999999e-04 0.0000000000000000e+00  -1.5057469464763740e-04 5.3499999999999999e-04 0.0000000000000000e+00  -1.5404215839003068e-04 5.3499999999999999e-04 0.0000000000000000e+00  -1.5752041339899339e-04 5.3499999999999999e-04 0.0000000000000000e+00  -1.6100050994992857e-04 5.3499999999999999e-04 0.0000000000000000e+00  -1.6449000398201970e-04 5.3499999999999999e-04 0.0000000000000000e+00  -1.6797468169450400e-04 5.3499999999999999e-04 0.0000000000000000e+00  -1.7146538999239335e-04 5.3499999999999999e-04 0.0000000000000000e+00  -1.7495496364896141e-04 5.3499999999999999e-04 0.0000000000000000e+00  -1.7843421018687788e-04 5.3499999999999999e-04 0.0000000000000000e+00  -1.8190800120332994e-04 5.3499999999999999e-04 0.0000000000000000e+00  -1.8537346903561516e-04 5.3499999999999999e-04 0.0000000000000000e+00  -1.8882519597246747e-04 5.3499999999999999e-04 0.0000000000000000e+00  -1.9225820755856433e-04 5.3499999999999999e-04 0.0000000000000000e+00  -1.9568354872078283e-04 5.3499999999999999e-04 0.0000000000000000e+00  -1.9908226535625772e-04 5.3499999999999999e-04 0.0000000000000000e+00  -2.0245626499016097e-04 5.3499999999999999e-04 0.0000000000000000e+00  -2.0580346706141969e-04 5.3499999999999999e-04 0.0000000000000000e+00  -2.0911711561301651e-04 5.3499999999999999e-04 0.0000000000000000e+00  -2.1240214466771291e-04 5.3499999999999999e-04 0.0000000000000000e+00  -2.1565831703656849e-04 5.3499999999999999e-04 0.0000000000000000e+00  -2.1886091229453855e-04 5.3499999999999999e-04 0.0000000000000000e+00  -2.2203902994734684e-04 5.3499999999999999e-04 0.0000000000000000e+00  -2.2512356285156988e-04 5.2564725874680519e-04 0.0000000000000000e+00  -2.2492143809363230e-04 5.1629200998161537e-04 0.0000000000000000e+00  -2.2463632694297655e-04 5.0693401131841496e-04 0.0000000000000000e+00  -2.2419542009267284e-04 4.9757276578590479e-04 0.0000000000000000e+00  -2.2364393245517656e-04 4.8822320144853096e-04 0.0000000000000000e+00  -2.2294233321200764e-04 4.7884542381053602e-04 0.0000000000000000e+00  -2.2213141308749054e-04 4.6948526906252542e-04 0.0000000000000000e+00  -2.2119792376447652e-04 4.6010204322068999e-04 0.0000000000000000e+00  -2.2012368128864143e-04 4.5071568909511373e-04 0.0000000000000000e+00  -2.1891710589103805e-04 4.4133876323721106e-04 0.0000000000000000e+00  -2.1758197152221909e-04 4.3193084965772706e-04 0.0000000000000000e+00  -2.1610976598917262e-04 4.2252195348432961e-04 0.0000000000000000e+00  -2.1450730519169525e-04 4.1309030539482202e-04 0.0000000000000000e+00  -2.1275691636434799e-04 4.0367200971053863e-04 0.0000000000000000e+00  -2.1087513852688651e-04 3.9420854023546867e-04 0.0000000000000000e+00  -2.0884364706729450e-04 3.8472232110193751e-04 0.0000000000000000e+00  -2.0666277158330409e-04 3.7524160862388025e-04 0.0000000000000000e+00  -2.0433558509765372e-04 3.6571579627318104e-04 0.0000000000000000e+00  -2.0184817913442468e-04 3.5619109060814149e-04 0.0000000000000000e+00  -1.9920481443059788e-04 3.4662912190531862e-04 0.0000000000000000e+00  -1.9640850103258014e-04 3.3701002432619232e-04 0.0000000000000000e+00  -1.9343456611890122e-04 3.2740109209158968e-04 0.0000000000000000e+00  -1.9029854704585812e-04 3.1772103310964852e-04 0.0000000000000000e+00  -1.8697226523166016e-04 3.0802352470657722e-04 0.0000000000000000e+00  -1.8348493251614946e-04 2.9825856619497803e-04 0.0000000000000000e+00  -1.7979023158394970e-04 2.8847917721253638e-04 0.0000000000000000e+00  -1.7592657094222611e-04 2.7859597351455318e-04 0.0000000000000000e+0