<?xml version="1.0"?>
<VTKFile type="UnstructuredGrid"  version="0.1"  >
<UnstructuredGrid>
<Piece  NumberOfPoints="16512" NumberOfCells="32424">
<Points>
<DataArray  type="Float64"  NumberOfComponents="3"  format="ascii">-25 4.9 0  25 4.9 0  25 -4.9 0  -25 -4.9 0  -10 0 0  10 0 0  -24.80000000000034 4.9 0  -24.60000000000068 4.9 0  -24.40000000000101 4.9 0  -24.20000000000135 4.9 0  -24.00000000000169 4.9 0  -23.80000000000203 4.9 0  -23.60000000000237 4.9 0  -23.40000000000271 4.9 0  -23.20000000000304 4.9 0  -23.00000000000338 4.9 0  -22.80000000000372 4.9 0  -22.60000000000406 4.9 0  -22.40000000000439 4.9 0  -22.20000000000473 4.9 0  -22.00000000000507 4.9 0  -21.80000000000541 4.9 0  -21.60000000000575 4.9 0  -21.40000000000608 4.9 0  -21.20000000000642 4.9 0  -21.00000000000676 4.9 0  -20.8000000000071 4.9 0  -20.60000000000744 4.9 0  -20.40000000000777 4.9 0  -20.20000000000811 4.9 0  -20.00000000000845 4.9 0  -19.80000000000879 4.9 0  -19.60000000000912 4.9 0  -19.40000000000946 4.9 0  -19.2000000000098 4.9 0  -19.00000000001039 4.9 0  -18.80000000001108 4.9 0  -18.60000000001231 4.9 0  -18.40000000001371 4.9 0  -18.2000000000154 4.9 0  -18.00000000001716 4.9 0  -17.80000000001892 4.9 0  -17.60000000002067 4.9 0  -17.40000000002243 4.9 0  -17.20000000002419 4.9 0  -17.00000000002595 4.9 0  -16.80000000002771 4.9 0  -16.60000000002947 4.9 0  -16.40000000003123 4.9 0  -16.20000000003299 4.9 0  -16.00000000003472 4.9 0  -15.80000000003612 4.9 0  -15.60000000003748 4.9 0  -15.40000000003853 4.9 0  -15.20000000003958 4.9 0  -15.00000000004063 4.9 0  -14.80000000004168 4.9 0  -14.60000000004273 4.9 0  -14.40000000004377 4.9 0  -14.20000000004482 4.9 0  -14.00000000004587 4.9 0  -13.80000000004692 4.9 0  -13.60000000004797 4.9 0  -13.40000000004902 4.9 0  -13.20000000005007 4.9 0  -13.00000000005111 4.9 0  -12.80000000005216 4.9 0  -12.60000000005321 4.9 0  -12.40000000005426 4.9 0  -12.20000000005531 4.9 0  -12.00000000005636 4.9 0  -11.80000000005741 4.9 0  -11.60000000005846 4.9 0  -11.4000000000595 4.9 0  -11.20000000006055 4.9 0  -11.0000000000616 4.9 0  -10.80000000006265 4.9 0  -10.6000000000637 4.9 0  -10.40000000006475 4.9 0  -10.2000000000658 4.9 0  -10.00000000006684 4.9 0  -9.800000000067891 4.9 0  -9.60000000006894 4.9 0  -9.400000000069989 4.9 0  -9.200000000070727 4.9 0  -9.00000000007142 4.9 0  -8.800000000071787 4.9 0  -8.600000000072125 4.9 0  -8.400000000072467 4.9 0  -8.200000000072805 4.9 0  -8.000000000073143 4.9 0  -7.800000000073481 4.9 0  -7.60000000007382 4.9 0  -7.400000000074154 4.9 0  -7.200000000074493 4.9 0  -7.000000000074831 4.9 0  -6.800000000075173 4.9 0  -6.600000000075511 4.9 0  -6.400000000075849 4.9 0  -6.200000000076187 4.9 0  -6.000000000076525 4.9 0  -5.800000000076867 4.9 0  -5.600000000077205 4.9 0  -5.400000000077544 4.9 0  -5.200000000077882 4.9 0  -5.00000000007822 4.9 0  -4.800000000078558 4.9 0  -4.600000000078897 4.9 0  -4.400000000079235 4.9 0  -4.200000000079573 4.9 0  -4.000000000079908 4.9 0  -3.800000000080246 4.9 0  -3.600000000080588 4.9 0  -3.400000000080926 4.9 0  -3.200000000081264 4.9 0  -3.000000000081606 4.9 0  -2.800000000081944 4.9 0  -2.600000000082282 4.9 0  -2.40000000008262 4.9 0  -2.200000000082959 4.9 0  -2.000000000083297 4.9 0  -1.800000000083635 4.9 0  -1.600000000083973 4.9 0  -1.400000000084312 4.9 0  -1.20000000008465 4.9 0  -1.000000000084988 4.9 0  -0.8000000000853262 4.9 0  -0.6000000000856645 4.9 0  -0.4000000000860027 4.9 0  -0.2000000000863409 4.9 0  -8.667910833537462e-11 4.9 0  0.1999999999129827 4.9 0  0.3999999999126409 4.9 0  0.5999999999123027 4.9 0  0.7999999999119716 4.9 0  0.9999999999116262 4.9 0  1.199999999911295 4.9 0  1.39999999991095 4.9 0  1.599999999910619 4.9 0  1.799999999910273 4.9 0  1.999999999909939 4.9 0  2.199999999909597 4.9 0  2.399999999909262 4.9 0  2.599999999908921 4.9 0  2.799999999908582 4.9 0  2.999999999908244 4.9 0  3.199999999907906 4.9 0  3.399999999907564 4.9 0  3.599999999907226 4.9 0  3.799999999906888 4.9 0  3.999999999906549 4.9 0  4.199999999906218 4.9 0  4.399999999905873 4.9 0  4.599999999905542 4.9 0  4.799999999905197 4.9 0  4.999999999904865 4.9 0  5.19999999990452 4.9 0  5.399999999904182 4.9 0  5.599999999903844 4.9 0  5.799999999903505 4.9 0  5.999999999903167 4.9 0  6.199999999902829 4.9 0  6.399999999902491 4.9 0  6.599999999902153 4.9 0  6.799999999902379 4.9 0  6.999999999902752 4.9 0  7.199999999903724 4.9 0  7.399999999904807 4.9 0  7.59999999990589 4.9 0  7.799999999906966 4.9 0  7.999999999908056 4.9 0  8.199999999909132 4.9 0  8.399999999910214 4.9 0  8.59999999991129 4.9 0  8.79999999991238 4.9 0  8.999999999913456 4.9 0  9.199999999914539 4.9 0  9.399999999915622 4.9 0  9.599999999916704 4.9 0  9.79999999991778 4.9 0  9.99999999991887 4.9 0  10.19999999991995 4.9 0  10.39999999992103 4.9 0  10.59999999992212 4.9 0  10.79999999992319 4.9 0  10.99999999992428 4.9 0  11.19999999992536 4.9 0  11.39999999992644 4.9 0  11.59999999992752 4.9 0  11.7999999999286 4.9 0  11.99999999992968 4.9 0  12.19999999993077 4.9 0  12.39999999993184 4.9 0  12.59999999993293 4.9 0  12.79999999993401 4.9 0  12.99999999993509 4.9 0  13.19999999993617 4.9 0  13.39999999993726 4.9 0  13.59999999993834 4.9 0  13.79999999993942 4.9 0  13.99999999994051 4.9 0  14.19999999994158 4.9 0  14.39999999994266 4.9 0  14.59999999994375 4.9 0  14.79999999994483 4.9 0  14.99999999994591 4.9 0  15.199999999947 4.9 0  15.39999999994807 4.9 0  15.59999999994915 4.9 0  15.79999999995024 4.9 0  15.99999999995132 4.9 0  16.1999999999524 4.9 0  16.39999999995349 4.9 0  16.59999999995456 4.9 0  16.79999999995565 4.9 0  16.99999999995674 4.9 0  17.19999999995781 4.9 0  17.39999999995889 4.9 0  17.59999999995997 4.9 0  17.79999999996106 4.9 0  17.99999999996214 4.9 0  18.19999999996322 4.9 0  18.3999999999643 4.9 0  18.59999999996538 4.9 0  18.79999999996646 4.9 0  18.99999999996755 4.9 0  19.19999999996863 4.9 0  19.39999999996971 4.9 0  19.59999999997079 4.9 0  19.79999999997187 4.9 0  19.99999999997296 4.9 0  20.19999999997404 4.9 0  20.39999999997512 4.9 0  20.5999999999762 4.9 0  20.79999999997728 4.9 0  20.99999999997836 4.9 0  21.19999999997945 4.9 0  21.39999999998052 4.9 0  21.59999999998161 4.9 0  21.79999999998269 4.9 0  21.99999999998377 4.9 0  22.19999999998485 4.9 0  22.39999999998594 4.9 0  22.59999999998701 4.9 0  22.7999999999881 4.9 0  22.99999999998919 4.9 0  23.19999999999026 4.9 0  23.39999999999135 4.9 0  23.59999999999243 4.9 0  23.79999999999351 4.9 0  23.99999999999459 4.9 0  24.19999999999568 4.9 0  24.39999999999675 4.9 0  24.59999999999783 4.9 0  24.79999999999892 4.9 0  25 4.700000000000415 0  25 4.500000000000868 0  25 4.300000000001562 0  25 4.100000000001831 0  25 3.900000000002072 0  25 3.700000000002459 0  25 3.500000000003038 0  25 3.300000000003653 0  25 3.100000000004294 0  25 2.900000000004838 0  25 2.700000000005293 0  25 2.500000000005957 0  25 2.300000000006508 0  25 2.100000000007153 0  25 1.900000000007722 0  25 1.700000000008417 0  25 1.500000000008938 0  25 1.30000000000963 0  25 1.100000000010154 0  25 0.9000000000108268 0  25 0.7000000000114559 0  25 0.5000000000119762 0  25 0.3000000000126564 0  25 0.1000000000131926 0  25 -0.09999999998679243 0  25 -0.2999999999874587 0  25 -0.4999999999878586 0  25 -0.6999999999884441 0  25 -0.899999999988804 0  25 -1.099999999989427 0  25 -1.299999999989749 0  25 -1.499999999990411 0  25 -1.69999999999073 0  25 -1.899999999991396 0  25 -2.099999999991715 0  25 -2.299999999992381 0  25 -2.499999999993047 0  25 -2.699999999993714 0  25 -2.899999999994227 0  25 -3.099999999994698 0  25 -3.299999999994673 0  25 -3.499999999995339 0  25 -3.699999999996004 0  25 -3.89999999999667 0  25 -4.099999999997335 0  25 -4.299999999998002 0  25 -4.499999999998668 0  25 -4.699999999999335 0  24.80000000000034 -4.9 0  24.60000000000068 -4.9 0  24.40000000000101 -4.9 0  24.20000000000135 -4.9 0  24.00000000000169 -4.9 0  23.80000000000203 -4.9 0  23.60000000000237 -4.9 0  23.40000000000271 -4.9 0  23.20000000000304 -4.9 0  23.00000000000338 -4.9 0  22.80000000000372 -4.9 0  22.60000000000406 -4.9 0  22.40000000000439 -4.9 0  22.20000000000473 -4.9 0  22.00000000000507 -4.9 0  21.80000000000541 -4.9 0  21.60000000000575 -4.9 0  21.40000000000608 -4.9 0  21.20000000000642 -4.9 0  21.00000000000676 -4.9 0  20.8000000000071 -4.9 0  20.60000000000744 -4.9 0  20.40000000000777 -4.9 0  20.20000000000811 -4.9 0  20.00000000000845 -4.9 0  19.80000000000879 -4.9 0  19.60000000000912 -4.9 0  19.40000000000946 -4.9 0  19.2000000000098 -4.9 0  19.00000000001039 -4.9 0  18.80000000001108 -4.9 0  18.60000000001231 -4.9 0  18.40000000001371 -4.9 0  18.2000000000154 -4.9 0  18.00000000001716 -4.9 0  17.80000000001892 -4.9 0  17.60000000002067 -4.9 0  17.40000000002243 -4.9 0  17.20000000002419 -4.9 0  17.00000000002595 -4.9 0  16.80000000002771 -4.9 0  16.60000000002947 -4.9 0  16.40000000003123 -4.9 0  16.20000000003299 -4.9 0  16.00000000003472 -4.9 0  15.80000000003612 -4.9 0  15.60000000003748 -4.9 0  15.40000000003853 -4.9 0  15.20000000003958 -4.9 0  15.00000000004063 -4.9 0  14.80000000004168 -4.9 0  14.60000000004273 -4.9 0  14.40000000004377 -4.9 0  14.20000000004482 -4.9 0  14.00000000004587 -4.9 0  13.80000000004692 -4.9 0  13.60000000004797 -4.9 0  13.40000000004902 -4.9 0  13.20000000005007 -4.9 0  13.00000000005111 -4.9 0  12.80000000005216 -4.9 0  12.60000000005321 -4.9 0  12.40000000005426 -4.9 0  12.20000000005531 -4.9 0  12.00000000005636 -4.9 0  11.80000000005741 -4.9 0  11.60000000005846 -4.9 0  11.4000000000595 -4.9 0  11.20000000006055 -4.9 0  11.0000000000616 -4.9 0  10.80000000006265 -4.9 0  10.6000000000637 -4.9 0  10.40000000006475 -4.9 0  10.2000000000658 -4.9 0  10.00000000006684 -4.9 0  9.800000000067891 -4.9 0  9.60000000006894 -4.9 0  9.400000000069989 -4.9 0  9.200000000070727 -4.9 0  9.00000000007142 -4.9 0  8.800000000071787 -4.9 0  8.600000000072125 -4.9 0  8.400000000072467 -4.9 0  8.200000000072805 -4.9 0  8.000000000073143 -4.9 
[...]
<PointData  Vectors="f_7"> 
<DataArray  type="Float64"  Name="f_7"  NumberOfComponents="3" format="ascii">2.0794113634550358e-04 4.8999999999999998e-04 0.0000000000000000e+00  -2.0813666396149097e-04 4.8999999999999998e-04 0.0000000000000000e+00  0.0000000000000000e+00 0.0000000000000000e+00 0.0000000000000000e+00  0.0000000000000000e+00 0.0000000000000000e+00 0.0000000000000000e+00  3.6298565553737065e-05 2.4575967100736069e-04 0.0000000000000000e+00  -3.5524817203513641e-05 2.4158349778236732e-04 0.0000000000000000e+00  2.0505794277436151e-04 4.8999999999999998e-04 0.0000000000000000e+00  2.0215390289857047e-04 4.8999999999999998e-04 0.0000000000000000e+00  1.9923224755978293e-04 4.8999999999999998e-04 0.0000000000000000e+00  1.9625028233749708e-04 4.8999999999999998e-04 0.0000000000000000e+00  1.9325494667620224e-04 4.8999999999999998e-04 0.0000000000000000e+00  1.9021590667620626e-04 4.8999999999999998e-04 0.0000000000000000e+00  1.8715908206688839e-04 4.8999999999999998e-04 0.0000000000000000e+00  1.8406696209319223e-04 4.8999999999999998e-04 0.0000000000000000e+00  1.8096770750569832e-04 4.8999999999999998e-04 0.0000000000000000e+00  1.7783900228826664e-04 4.8999999999999998e-04 0.0000000000000000e+00  1.7469456257475060e-04 4.8999999999999998e-04 0.0000000000000000e+00  1.7154985207937495e-04 4.8999999999999998e-04 0.0000000000000000e+00  1.6837093738197186e-04 4.8999999999999998e-04 0.0000000000000000e+00  1.6519575490423735e-04 4.8999999999999998e-04 0.0000000000000000e+00  1.6201821256170497e-04 4.8999999999999998e-04 0.0000000000000000e+00  1.5884083434146150e-04 4.8999999999999998e-04 0.0000000000000000e+00  1.5564172793909446e-04 4.8999999999999998e-04 0.0000000000000000e+00  1.5245449073208344e-04 4.8999999999999998e-04 0.0000000000000000e+00  1.4927709068362360e-04 4.8999999999999998e-04 0.0000000000000000e+00  1.4608881169692628e-04 4.8999999999999998e-04 0.0000000000000000e+00  1.4291283746333672e-04 4.8999999999999998e-04 0.0000000000000000e+00  1.3974632283692004e-04 4.8999999999999998e-04 0.0000000000000000e+00  1.3659441127122202e-04 4.8999999999999998e-04 0.0000000000000000e+00  1.3345882218960208e-04 4.8999999999999998e-04 0.0000000000000000e+00  1.3031598636321665e-04 4.8999999999999998e-04 0.0000000000000000e+00  1.2719405252785648e-04 4.8999999999999998e-04 0.0000000000000000e+00  1.2409125568110343e-04 4.8999999999999998e-04 0.0000000000000000e+00  1.2100049688738063e-04 4.8999999999999998e-04 0.0000000000000000e+00  1.1792621950827410e-04 4.8999999999999998e-04 0.0000000000000000e+00  1.1487020881694402e-04 4.8999999999999998e-04 0.0000000000000000e+00  1.1182747563533374e-04 4.8999999999999998e-04 0.0000000000000000e+00  1.0880271953838994e-04 4.8999999999999998e-04 0.0000000000000000e+00  1.0579595605625962e-04 4.8999999999999998e-04 0.0000000000000000e+00  1.0280997487713919e-04 4.8999999999999998e-04 0.0000000000000000e+00  9.9828766078299599e-05 4.8999999999999998e-04 0.0000000000000000e+00  9.6869887872754793e-05 4.8999999999999998e-04 0.0000000000000000e+00  9.3924401934035185e-05 4.8999999999999998e-04 0.0000000000000000e+00  9.0996777990523018e-05 4.8999999999999998e-04 0.0000000000000000e+00  8.8077102655127336e-05 4.8999999999999998e-04 0.0000000000000000e+00  8.5172450167700118e-05 4.8999999999999998e-04 0.0000000000000000e+00  8.2281108510563077e-05 4.8999999999999998e-04 0.0000000000000000e+00  7.9399573664921193e-05 4.8999999999999998e-04 0.0000000000000000e+00  7.6526428034373007e-05 4.8999999999999998e-04 0.0000000000000000e+00  7.3660632817051198e-05 4.8999999999999998e-04 0.0000000000000000e+00  7.0800108621706979e-05 4.8999999999999998e-04 0.0000000000000000e+00  6.7944680601340543e-05 4.8999999999999998e-04 0.0000000000000000e+00  6.5092974959058452e-05 4.8999999999999998e-04 0.0000000000000000e+00  6.2242357423053128e-05 4.8999999999999998e-04 0.0000000000000000e+00  5.9392089434187185e-05 4.8999999999999998e-04 0.0000000000000000e+00  5.6541987077278976e-05 4.8999999999999998e-04 0.0000000000000000e+00  5.3688826230769408e-05 4.8999999999999998e-04 0.0000000000000000e+00  5.0831469131659093e-05 4.8999999999999998e-04 0.0000000000000000e+00  4.7971160889071846e-05 4.8999999999999998e-04 0.0000000000000000e+00  4.5103618562879261e-05 4.8999999999999998e-04 0.0000000000000000e+00  4.2235747473231143e-05 4.8999999999999998e-04 0.0000000000000000e+00  3.9363006061694992e-05 4.8999999999999998e-04 0.0000000000000000e+00  3.6486971115324388e-05 4.8999999999999998e-04 0.0000000000000000e+00  3.3608653821941928e-05 4.8999999999999998e-04 0.0000000000000000e+00  3.0733939631352698e-05 4.8999999999999998e-04 0.0000000000000000e+00  2.7861662147546811e-05 4.8999999999999998e-04 0.0000000000000000e+00  2.5010018431418554e-05 4.8999999999999998e-04 0.0000000000000000e+00  2.2172191318533021e-05 4.8999999999999998e-04 0.0000000000000000e+00  1.9358196375612044e-05 4.8999999999999998e-04 0.0000000000000000e+00  1.6572482430656695e-05 4.8999999999999998e-04 0.0000000000000000e+00  1.3827290225865465e-05 4.8999999999999998e-04 0.0000000000000000e+00  1.1145256692482109e-05 4.8999999999999998e-04 0.0000000000000000e+00  8.5314387701753341e-06 4.8999999999999998e-04 0.0000000000000000e+00  6.0162211425904480e-06 4.8999999999999998e-04 0.0000000000000000e+00  3.5790653046805597e-06 4.8999999999999998e-04 0.0000000000000000e+00  1.2265633703593823e-06 4.8999999999999998e-04 0.0000000000000000e+00  -9.9009765612574715e-07 4.8999999999999998e-04 0.0000000000000000e+00  -3.0471744831063061e-06 4.8999999999999998e-04 0.0000000000000000e+00  -4.9607143541004691e-06 4.8999999999999998e-04 0.0000000000000000e+00  -6.7459949892700737e-06 4.8999999999999998e-04 0.0000000000000000e+00  -8.3288564858827426e-06 4.8999999999999998e-04 0.0000000000000000e+00  -9.7652709631287085e-06 4.8999999999999998e-04 0.0000000000000000e+00  -1.1019323928824926e-05 4.8999999999999998e-04 0.0000000000000000e+00  -1.2078596396297948e-05 4.8999999999999998e-04 0.0000000000000000e+00  -1.2970126751589928e-05 4.8999999999999998e-04 0.0000000000000000e+00  -1.3701787048174232e-05 4.8999999999999998e-04 0.0000000000000000e+00  -1.4264075378252078e-05 4.8999999999999998e-04 0.0000000000000000e+00  -1.4663652470822717e-05 4.8999999999999998e-04 0.0000000000000000e+00  -1.4909041895496865e-05 4.8999999999999998e-04 0.0000000000000000e+00  -1.5015392259666012e-05 4.8999999999999998e-04 0.0000000000000000e+00  -1.5012368156182907e-05 4.8999999999999998e-04 0.0000000000000000e+00  -1.4905684539311912e-05 4.8999999999999998e-04 0.0000000000000000e+00  -1.4687665558063679e-05 4.8999999999999998e-04 0.0000000000000000e+00  -1.4377151205926281e-05 4.8999999999999998e-04 0.0000000000000000e+00  -1.4009845189292720e-05 4.8999999999999998e-04 0.0000000000000000e+00  -1.3584114454304166e-05 4.8999999999999998e-04 0.0000000000000000e+00  -1.3111230393669443e-05 4.8999999999999998e-04 0.0000000000000000e+00  -1.2586914930069684e-05 4.8999999999999998e-04 0.0000000000000000e+00  -1.2040670960468949e-05 4.8999999999999998e-04 0.0000000000000000e+00  -1.1474774485594534e-05 4.8999999999999998e-04 0.0000000000000000e+00  -1.0900231930756343e-05 4.8999999999999998e-04 0.0000000000000000e+00  -1.0311768732324082e-05 4.8999999999999998e-04 0.0000000000000000e+00  -9.7288684916333268e-06 4.8999999999999998e-04 0.0000000000000000e+00  -9.1530548422737754e-06 4.8999999999999998e-04 0.0000000000000000e+00  -8.5862893447912996e-06 4.8999999999999998e-04 0.0000000000000000e+00  -8.0331500255362200e-06 4.8999999999999998e-04 0.0000000000000000e+00  -7.4981979286867181e-06 4.8999999999999998e-04 0.0000000000000000e+00  -6.9846340225338171e-06 4.8999999999999998e-04 0.0000000000000000e+00  -6.4863243007566771e-06 4.8999999999999998e-04 0.0000000000000000e+00  -6.0135685301215987e-06 4.8999999999999998e-04 0.0000000000000000e+00  -5.5653113013808465e-06 4.8999999999999998e-04 0.0000000000000000e+00  -5.1433753944211059e-06 4.8999999999999998e-04 0.0000000000000000e+00  -4.7464498581911391e-06 4.8999999999999998e-04 0.0000000000000000e+00  -4.3734545032200468e-06 4.8999999999999998e-04 0.0000000000000000e+00  -4.0241427382621516e-06 4.8999999999999998e-04 0.0000000000000000e+00  -3.7001879928853851e-06 4.8999999999999998e-04 0.0000000000000000e+00  -3.3990468983809506e-06 4.8999999999999998e-04 0.0000000000000000e+00  -3.1196082854773090e-06 4.8999999999999998e-04 0.0000000000000000e+00  -2.8584159393527129e-06 4.8999999999999998e-04 0.0000000000000000e+00  -2.6171966638445655e-06 4.8999999999999998e-04 0.0000000000000000e+00  -2.3912857464235572e-06 4.8999999999999998e-04 0.0000000000000000e+00  -2.1817038591659006e-06 4.8999999999999998e-04 0.0000000000000000e+00  -1.9840464849995150e-06 4.8999999999999998e-04 0.0000000000000000e+00  -1.7981837864681268e-06 4.8999999999999998e-04 0.0000000000000000e+00  -1.6214056083220630e-06 4.8999999999999998e-04 0.0000000000000000e+00  -1.4516032080984993e-06 4.8999999999999998e-04 0.0000000000000000e+00  -1.2871520185376437e-06 4.8999999999999998e-04 0.0000000000000000e+00  -1.1258954745528709e-06 4.8999999999999998e-04 0.0000000000000000e+00  -9.6516698530648964e-07 4.8999999999999998e-04 0.0000000000000000e+00  -8.0372812536465783e-07 4.8999999999999998e-04 0.0000000000000000e+00  -6.3989526440763257e-07 4.8999999999999998e-04 0.0000000000000000e+00  -4.7212735484413045e-07 4.8999999999999998e-04 0.0000000000000000e+00  -2.9675042479925262e-07 4.8999999999999998e-04 0.0000000000000000e+00  -1.1465793569498582e-07 4.8999999999999998e-04 0.0000000000000000e+00  7.6274202003183736e-08 4.8999999999999998e-04 0.0000000000000000e+00  2.7908819260253112e-07 4.8999999999999998e-04 0.0000000000000000e+00  4.9386434467049951e-07 4.8999999999999998e-04 0.0000000000000000e+00  7.2234714091708232e-07 4.8999999999999998e-04 0.0000000000000000e+00  9.6646378602350210e-07 4.8999999999999998e-04 0.0000000000000000e+00  1.2251918824669342e-06 4.8999999999999998e-04 0.0000000000000000e+00  1.4996434678895115e-06 4.8999999999999998e-04 0.0000000000000000e+00  1.7907067884917106e-06 4.8999999999999998e-04 0.0000000000000000e+00  2.0998541595723345e-06 4.8999999999999998e-04 0.0000000000000000e+00  2.4267648405595916e-06 4.8999999999999998e-04 0.0000000000000000e+00  2.7720924296552101e-06 4.8999999999999998e-04 0.0000000000000000e+00  3.1365853602497561e-06 4.8999999999999998e-04 0.0000000000000000e+00  3.5194795380718216e-06 4.8999999999999998e-04 0.0000000000000000e+00  3.9231052892852441e-06 4.8999999999999998e-04 0.0000000000000000e+00  4.3463865075856884e-06 4.8999999999999998e-04 0.0000000000000000e+00  4.7869636360485501e-06 4.8999999999999998e-04 0.0000000000000000e+00  5.2489181436188432e-06 4.8999999999999998e-04 0.0000000000000000e+00  5.7303174305813974e-06 4.8999999999999998e-04 0.0000000000000000e+00  6.2311993861242130e-06 4.8999999999999998e-04 0.0000000000000000e+00  6.7507338448939026e-06 4.8999999999999998e-04 0.0000000000000000e+00  7.2862577873173454e-06 4.8999999999999998e-04 0.0000000000000000e+00  7.8458199761193189e-06 4.8999999999999998e-04 0.0000000000000000e+00  8.4095369604129895e-06 4.8999999999999998e-04 0.0000000000000000e+00  8.9872266704173760e-06 4.8999999999999998e-04 0.0000000000000000e+00  9.5746591491727421e-06 4.8999999999999998e-04 0.0000000000000000e+00  1.0168876937079395e-05 4.8999999999999998e-04 0.0000000000000000e+00  1.0755877353102593e-05 4.8999999999999998e-04 0.0000000000000000e+00  1.1339113112482725e-05 4.8999999999999998e-04 0.0000000000000000e+00  1.1907981394920355e-05 4.8999999999999998e-04 0.0000000000000000e+00  1.2457124352375220e-05 4.8999999999999998e-04 0.0000000000000000e+00  1.2981032962717044e-05 4.8999999999999998e-04 0.0000000000000000e+00  1.3453188142703582e-05 4.8999999999999998e-04 0.0000000000000000e+00  1.3875465336745015e-05 4.8999999999999998e-04 0.0000000000000000e+00  1.4225715568506616e-05 4.8999999999999998e-04 0.0000000000000000e+00  1.4525793285191911e-05 4.8999999999999998e-04 0.0000000000000000e+00  1.4727825477591838e-05 4.8999999999999998e-04 0.0000000000000000e+00  1.4823729009011756e-05 4.8999999999999998e-04 0.0000000000000000e+00  1.4821828105306828e-05 4.8999999999999998e-04 0.0000000000000000e+00  1.4676189215916398e-05 4.8999999999999998e-04 0.0000000000000000e+00  1.4433418364534524e-05 4.8999999999999998e-04 0.0000000000000000e+00  1.4036898376637907e-05 4.8999999999999998e-04 0.0000000000000000e+00  1.3457374698936932e-05 4.8999999999999998e-04 0.0000000000000000e+00  1.2702348632018853e-05 4.8999999999999998e-04 0.0000000000000000e+00  1.1792341035419361e-05 4.8999999999999998e-04 0.0000000000000000e+00  1.0696361252657392e-05 4.8999999999999998e-04 0.0000000000000000e+00  9.4159545943724823e-06 4.8999999999999998e-04 0.0000000000000000e+00  7.9684690391212723e-06 4.8999999999999998e-04 0.0000000000000000e+00  6.3376208325888652e-06 4.8999999999999998e-04 0.0000000000000000e+00  4.6007508341882118e-06 4.8999999999999998e-04 0.0000000000000000e+00  2.6544964301808781e-06 4.8999999999999998e-04 0.0000000000000000e+00  5.6966836384781808e-07 4.8999999999999998e-04 0.0000000000000000e+00  -1.6455385792005904e-06 4.8999999999999998e-04 0.0000000000000000e+00  -3.9859047127934551e-06 4.8999999999999998e-04 0.0000000000000000e+00  -6.4201202142322755e-06 4.8999999999999998e-04 0.0000000000000000e+00  -8.9643528957461327e-06 4.8999999999999998e-04 0.0000000000000000e+00  -1.1572397777566908e-05 4.8999999999999998e-04 0.0000000000000000e+00  -1.4260963318708679e-05 4.8999999999999998e-04 0.0000000000000000e+00  -1.6996115300773298e-05 4.8999999999999998e-04 0.0000000000000000e+00  -1.9771700878861544e-05 4.8999999999999998e-04 0.0000000000000000e+00  -2.2578270113778014e-05 4.8999999999999998e-04 0.0000000000000000e+00  -2.5416730635456252e-05 4.8999999999999998e-04 0.0000000000000000e+00  -2.8265784779013897e-05 4.8999999999999998e-04 0.0000000000000000e+00  -3.1128596040739420e-05 4.8999999999999998e-04 0.0000000000000000e+00  -3.3995663293863969e-05 4.8999999999999998e-04 0.0000000000000000e+00  -3.6864909655049214e-05 4.8999999999999998e-04 0.0000000000000000e+00  -3.9733609052051184e-05 4.8999999999999998e-04 0.0000000000000000e+00  -4.2599591891354481e-05 4.8999999999999998e-04 0.0000000000000000e+00  -4.5461760480947167e-05 4.8999999999999998e-04 0.0000000000000000e+00  -4.8318880870375828e-05 4.8999999999999998e-04 0.0000000000000000e+00  -5.1172708020668154e-05 4.8999999999999998e-04 0.0000000000000000e+00  -5.4022577214206566e-05 4.8999999999999998e-04 0.0000000000000000e+00  -5.6869640174531116e-05 4.8999999999999998e-04 0.0000000000000000e+00  -5.9713538935307002e-05 4.8999999999999998e-04 0.0000000000000000e+00  -6.2555811748967564e-05 4.8999999999999998e-04 0.0000000000000000e+00  -6.5399441688527267e-05 4.8999999999999998e-04 0.0000000000000000e+00  -6.8244665690739883e-05 4.8999999999999998e-04 0.0000000000000000e+00  -7.1094148841023091e-05 4.8999999999999998e-04 0.0000000000000000e+00  -7.3948496556112896e-05 4.8999999999999998e-04 0.0000000000000000e+00  -7.6807957475912261e-05 4.8999999999999998e-04 0.0000000000000000e+00  -7.9676036889091541e-05 4.8999999999999998e-04 0.0000000000000000e+00  -8.2554128234886315e-05 4.8999999999999998e-04 0.0000000000000000e+00  -8.5444142510620062e-05 4.8999999999999998e-04 0.0000000000000000e+00  -8.8345528173211678e-05 4.8999999999999998e-04 0.0000000000000000e+00  -9.1254045818152296e-05 4.8999999999999998e-04 0.0000000000000000e+00  -9.4179776971710149e-05 4.8999999999999998e-04 0.0000000000000000e+00  -9.7121095836517779e-05 4.8999999999999998e-04 0.0000000000000000e+00  -1.0008110532623292e-04 4.8999999999999998e-04 0.0000000000000000e+00  -1.0304723848817224e-04 4.8999999999999998e-04 0.0000000000000000e+00  -1.0603543316616784e-04 4.8999999999999998e-04 0.0000000000000000e+00  -1.0904409893525035e-04 4.8999999999999998e-04 0.0000000000000000e+00  -1.1206193389520559e-04 4.8999999999999998e-04 0.0000000000000000e+00  -1.1510014896229112e-04 4.8999999999999998e-04 0.0000000000000000e+00  -1.1815602464389195e-04 4.8999999999999998e-04 0.0000000000000000e+00  -1.2123034311367040e-04 4.8999999999999998e-04 0.0000000000000000e+00  -1.2431868212067982e-04 4.8999999999999998e-04 0.0000000000000000e+00  -1.2741912706321152e-04 4.8999999999999998e-04 0.0000000000000000e+00  -1.3053516051880195e-04 4.8999999999999998e-04 0.0000000000000000e+00  -1.3366803016801539e-04 4.8999999999999998e-04 0.0000000000000000e+00  -1.3681143263993964e-04 4.8999999999999998e-04 0.0000000000000000e+00  -1.3996507889997299e-04 4.8999999999999998e-04 0.0000000000000000e+00  -1.4312895631336746e-04 4.8999999999999998e-04 0.0000000000000000e+00  -1.4630343735901258e-04 4.8999999999999998e-04 0.0000000000000000e+00  -1.4948026660501168e-04 4.8999999999999998e-04 0.0000000000000000e+00  -1.5266643149167183e-04 4.8999999999999998e-04 0.0000000000000000e+00  -1.5584865932168814e-04 4.8999999999999998e-04 0.0000000000000000e+00  -1.5903705432737534e-04 4.8999999999999998e-04 0.0000000000000000e+00  -1.6222492919829956e-04 4.8999999999999998e-04 0.0000000000000000e+00  -1.6540374897795054e-04 4.8999999999999998e-04 0.0000000000000000e+00  -1.6857798635338319e-04 4.8999999999999998e-04 0.0000000000000000e+00  -1.7174495009151774e-04 4.8999999999999998e-04 0.0000000000000000e+00  -1.7489960340882809e-04 4.8999999999999998e-04 0.0000000000000000e+00  -1.7803731351940543e-04 4.8999999999999998e-04 0.0000000000000000e+00  -1.8116826148146549e-04 4.8999999999999998e-04 0.0000000000000000e+00  -1.8427486293062236e-04 4.8999999999999998e-04 0.0000000000000000e+00  -1.8735883730850906e-04 4.8999999999999998e-04 0.0000000000000000e+00  -1.9041821745571902e-04 4.8999999999999998e-04 0.0000000000000000e+00  -1.9344667744390938e-04 4.8999999999999998e-04 0.0000000000000000e+00  -1.9644875291966471e-04 4.8999999999999998e-04 0.0000000000000000e+00  -1.9942419947611010e-04 4.8999999999999998e-04 0.0000000000000000e+00  -2.0234990780942781e-04 4.8999999999999998e-04 0.0000000000000000e+00  -2.0525292588898899e-04 4.8999999999999998e-04 0.0000000000000000e+00  -2.0806879308406527e-04 4.8145990712626532e-04 0.0000000000000000e+00  -2.0788040564676308e-04 4.7291741578654522e-04 0.0000000000000000e+00  -2.0761465084637870e-04 4.6437226665744521e-04 0.0000000000000000e+00  -2.0720374552757372e-04 4.5582395727758262e-04 0.0000000000000000e+00  -2.0668981819585411e-04 4.4728631271726026e-04 0.0000000000000000e+00  -2.0603603385119213e-04 4.3872218976305179e-04 0.0000000000000000e+00  -2.0528044056575842e-04 4.3017418939321868e-04 0.0000000000000000e+00  -2.0441076198826145e-04 4.2160436096707466e-04 0.0000000000000000e+00  -2.0341009165725834e-04 4.1303124968709864e-04 0.0000000000000000e+00  -2.0228620661143112e-04 4.0446647392434646e-04 0.0000000000000000e+00  -2.0104290693364346e-04 3.9587240927418645e-04 0.0000000000000000e+00  -1.9967203463810317e-04 3.8727693533418341e-04 0.0000000000000000e+00  -1.9818029030546920e-04 3.7865976542666502e-04 0.0000000000000000e+00  -1.9655103893785774e-04 3.7005437585491645e-04 0.0000000000000000e+00  -1.9479988130084361e-04 3.6140646015508536e-04 0.0000000000000000e+00  -1.9290987876635851e-04 3.5273676880540977e-04 0.0000000000000000e+00  -1.9088122020696462e-04 3.4407144826093916e-04 0.0000000000000000e+00  -1.8871716668295566e-04 3.3536358075281935e-04 0.0000000000000000e+00  -1.8640451202037360e-04 3.2665595015349730e-04 0.0000000000000000e+00  -1.8394748823157112e-04 3.1791292566319177e-04 0.0000000000000000e+00  -1.8134917155369313e-04 3.0911620648363603e-04 0.0000000000000000e+00  -1.7858631723232711e-04 3.0032798211203344e-04 0.0000000000000000e+00  -1.7567396069052087e-04 2.9147308930618397e-04 0.0000000000000000e+00  -1.7258548048684961e-04 2.8260111663173227e-04 0.0000000000000000e+00  -1.6934868073145923e-04 2.7366583662508711e-04 0.0000000000000000e+00  -1.6592022071410119e-04 2.6471614368509753e-04 0.0000000000000000e+00  -1.6233635076631081e-04 2.5566956488762017e-04 0.0000000000000000e+0