<?xml version="1.0"?>
<VTKFile type="UnstructuredGrid"  version="0.1"  >
<UnstructuredGrid>
<Piece  NumberOfPoints="16512" NumberOfCells="32424">
<Points>
<DataArray  type="Float64"  NumberOfComponents="3"  format="ascii">-25 4.9 0  25 4.9 0  25 -4.9 0  -25 -4.9 0  -10 0 0  10 0 0  -24.80000000000034 4.9 0  -24.60000000000068 4.9 0  -24.40000000000101 4.9 0  -24.20000000000135 4.9 0  -24.00000000000169 4.9 0  -23.80000000000203 4.9 0  -23.60000000000237 4.9 0  -23.40000000000271 4.9 0  -23.20000000000304 4.9 0  -23.00000000000338 4.9 0  -22.80000000000372 4.9 0  -22.60000000000406 4.9 0  -22.40000000000439 4.9 0  -22.20000000000473 4.9 0  -22.00000000000507 4.9 0  -21.80000000000541 4.9 0  -21.60000000000575 4.9 0  -21.40000000000608 4.9 0  -21.20000000000642 4.9 0  -21.00000000000676 4.9 0  -20.8000000000071 4.9 0  -20.60000000000744 4.9 0  -20.40000000000777 4.9 0  -20.20000000000811 4.9 0  -20.00000000000845 4.9 0  -19.80000000000879 4.9 0  -19.60000000000912 4.9 0  -19.40000000000946 4.9 0  -19.2000000000098 4.9 0  -19.00000000001039 4.9 0  -18.80000000001108 4.9 0  -18.60000000001231 4.9 0  -18.40000000001371 4.9 0  -18.2000000000154 4.9 0  -18.00000000001716 4.9 0  -17.80000000001892 4.9 0  -17.60000000002067 4.9 0  -17.40000000002243 4.9 0  -17.20000000002419 4.9 0  -17.00000000002595 4.9 0  -16.80000000002771 4.9 0  -16.60000000002947 4.9 0  -16.40000000003123 4.9 0  -16.20000000003299 4.9 0  -16.00000000003472 4.9 0  -15.80000000003612 4.9 0  -15.60000000003748 4.9 0  -15.40000000003853 4.9 0  -15.20000000003958 4.9 0  -15.00000000004063 4.9 0  -14.80000000004168 4.9 0  -14.60000000004273 4.9 0  -14.40000000004377 4.9 0  -14.20000000004482 4.9 0  -14.00000000004587 4.9 0  -13.80000000004692 4.9 0  -13.60000000004797 4.9 0  -13.40000000004902 4.9 0  -13.20000000005007 4.9 0  -13.00000000005111 4.9 0  -12.80000000005216 4.9 0  -12.60000000005321 4.9 0  -12.40000000005426 4.9 0  -12.20000000005531 4.9 0  -12.00000000005636 4.9 0  -11.80000000005741 4.9 0  -11.60000000005846 4.9 0  -11.4000000000595 4.9 0  -11.20000000006055 4.9 0  -11.0000000000616 4.9 0  -10.80000000006265 4.9 0  -10.6000000000637 4.9 0  -10.40000000006475 4.9 0  -10.2000000000658 4.9 0  -10.00000000006684 4.9 0  -9.800000000067891 4.9 0  -9.60000000006894 4.9 0  -9.400000000069989 4.9 0  -9.200000000070727 4.9 0  -9.00000000007142 4.9 0  -8.800000000071787 4.9 0  -8.600000000072125 4.9 0  -8.400000000072467 4.9 0  -8.200000000072805 4.9 0  -8.000000000073143 4.9 0  -7.800000000073481 4.9 0  -7.60000000007382 4.9 0  -7.400000000074154 4.9 0  -7.200000000074493 4.9 0  -7.000000000074831 4.9 0  -6.800000000075173 4.9 0  -6.600000000075511 4.9 0  -6.400000000075849 4.9 0  -6.200000000076187 4.9 0  -6.000000000076525 4.9 0  -5.800000000076867 4.9 0  -5.600000000077205 4.9 0  -5.400000000077544 4.9 0  -5.200000000077882 4.9 0  -5.00000000007822 4.9 0  -4.800000000078558 4.9 0  -4.600000000078897 4.9 0  -4.400000000079235 4.9 0  -4.200000000079573 4.9 0  -4.000000000079908 4.9 0  -3.800000000080246 4.9 0  -3.600000000080588 4.9 0  -3.400000000080926 4.9 0  -3.200000000081264 4.9 0  -3.000000000081606 4.9 0  -2.800000000081944 4.9 0  -2.600000000082282 4.9 0  -2.40000000008262 4.9 0  -2.200000000082959 4.9 0  -2.000000000083297 4.9 0  -1.800000000083635 4.9 0  -1.600000000083973 4.9 0  -1.400000000084312 4.9 0  -1.20000000008465 4.9 0  -1.000000000084988 4.9 0  -0.8000000000853262 4.9 0  -0.6000000000856645 4.9 0  -0.4000000000860027 4.9 0  -0.2000000000863409 4.9 0  -8.667910833537462e-11 4.9 0  0.1999999999129827 4.9 0  0.3999999999126409 4.9 0  0.5999999999123027 4.9 0  0.7999999999119716 4.9 0  0.9999999999116262 4.9 0  1.199999999911295 4.9 0  1.39999999991095 4.9 0  1.599999999910619 4.9 0  1.799999999910273 4.9 0  1.999999999909939 4.9 0  2.199999999909597 4.9 0  2.399999999909262 4.9 0  2.599999999908921 4.9 0  2.799999999908582 4.9 0  2.999999999908244 4.9 0  3.199999999907906 4.9 0  3.399999999907564 4.9 0  3.599999999907226 4.9 0  3.799999999906888 4.9 0  3.999999999906549 4.9 0  4.199999999906218 4.9 0  4.399999999905873 4.9 0  4.599999999905542 4.9 0  4.799999999905197 4.9 0  4.999999999904865 4.9 0  5.19999999990452 4.9 0  5.399999999904182 4.9 0  5.599999999903844 4.9 0  5.799999999903505 4.9 0  5.999999999903167 4.9 0  6.199999999902829 4.9 0  6.399999999902491 4.9 0  6.599999999902153 4.9 0  6.799999999902379 4.9 0  6.999999999902752 4.9 0  7.199999999903724 4.9 0  7.399999999904807 4.9 0  7.59999999990589 4.9 0  7.799999999906966 4.9 0  7.999999999908056 4.9 0  8.199999999909132 4.9 0  8.399999999910214 4.9 0  8.59999999991129 4.9 0  8.79999999991238 4.9 0  8.999999999913456 4.9 0  9.199999999914539 4.9 0  9.399999999915622 4.9 0  9.599999999916704 4.9 0  9.79999999991778 4.9 0  9.99999999991887 4.9 0  10.19999999991995 4.9 0  10.39999999992103 4.9 0  10.59999999992212 4.9 0  10.79999999992319 4.9 0  10.99999999992428 4.9 0  11.19999999992536 4.9 0  11.39999999992644 4.9 0  11.59999999992752 4.9 0  11.7999999999286 4.9 0  11.99999999992968 4.9 0  12.19999999993077 4.9 0  12.39999999993184 4.9 0  12.59999999993293 4.9 0  12.79999999993401 4.9 0  12.99999999993509 4.9 0  13.19999999993617 4.9 0  13.39999999993726 4.9 0  13.59999999993834 4.9 0  13.79999999993942 4.9 0  13.99999999994051 4.9 0  14.19999999994158 4.9 0  14.39999999994266 4.9 0  14.59999999994375 4.9 0  14.79999999994483 4.9 0  14.99999999994591 4.9 0  15.199999999947 4.9 0  15.39999999994807 4.9 0  15.59999999994915 4.9 0  15.79999999995024 4.9 0  15.99999999995132 4.9 0  16.1999999999524 4.9 0  16.39999999995349 4.9 0  16.59999999995456 4.9 0  16.79999999995565 4.9 0  16.99999999995674 4.9 0  17.19999999995781 4.9 0  17.39999999995889 4.9 0  17.59999999995997 4.9 0  17.79999999996106 4.9 0  17.99999999996214 4.9 0  18.19999999996322 4.9 0  18.3999999999643 4.9 0  18.59999999996538 4.9 0  18.79999999996646 4.9 0  18.99999999996755 4.9 0  19.19999999996863 4.9 0  19.39999999996971 4.9 0  19.59999999997079 4.9 0  19.79999999997187 4.9 0  19.99999999997296 4.9 0  20.19999999997404 4.9 0  20.39999999997512 4.9 0  20.5999999999762 4.9 0  20.79999999997728 4.9 0  20.99999999997836 4.9 0  21.19999999997945 4.9 0  21.39999999998052 4.9 0  21.59999999998161 4.9 0  21.79999999998269 4.9 0  21.99999999998377 4.9 0  22.19999999998485 4.9 0  22.39999999998594 4.9 0  22.59999999998701 4.9 0  22.7999999999881 4.9 0  22.99999999998919 4.9 0  23.19999999999026 4.9 0  23.39999999999135 4.9 0  23.59999999999243 4.9 0  23.79999999999351 4.9 0  23.99999999999459 4.9 0  24.19999999999568 4.9 0  24.39999999999675 4.9 0  24.59999999999783 4.9 0  24.79999999999892 4.9 0  25 4.700000000000415 0  25 4.500000000000868 0  25 4.300000000001562 0  25 4.100000000001831 0  25 3.900000000002072 0  25 3.700000000002459 0  25 3.500000000003038 0  25 3.300000000003653 0  25 3.100000000004294 0  25 2.900000000004838 0  25 2.700000000005293 0  25 2.500000000005957 0  25 2.300000000006508 0  25 2.100000000007153 0  25 1.900000000007722 0  25 1.700000000008417 0  25 1.500000000008938 0  25 1.30000000000963 0  25 1.100000000010154 0  25 0.9000000000108268 0  25 0.7000000000114559 0  25 0.5000000000119762 0  25 0.3000000000126564 0  25 0.1000000000131926 0  25 -0.09999999998679243 0  25 -0.2999999999874587 0  25 -0.4999999999878586 0  25 -0.6999999999884441 0  25 -0.899999999988804 0  25 -1.099999999989427 0  25 -1.299999999989749 0  25 -1.499999999990411 0  25 -1.69999999999073 0  25 -1.899999999991396 0  25 -2.099999999991715 0  25 -2.299999999992381 0  25 -2.499999999993047 0  25 -2.699999999993714 0  25 -2.899999999994227 0  25 -3.099999999994698 0  25 -3.299999999994673 0  25 -3.499999999995339 0  25 -3.699999999996004 0  25 -3.89999999999667 0  25 -4.099999999997335 0  25 -4.299999999998002 0  25 -4.499999999998668 0  25 -4.699999999999335 0  24.80000000000034 -4.9 0  24.60000000000068 -4.9 0  24.40000000000101 -4.9 0  24.20000000000135 -4.9 0  24.00000000000169 -4.9 0  23.80000000000203 -4.9 0  23.60000000000237 -4.9 0  23.40000000000271 -4.9 0  23.20000000000304 -4.9 0  23.00000000000338 -4.9 0  22.80000000000372 -4.9 0  22.60000000000406 -4.9 0  22.40000000000439 -4.9 0  22.20000000000473 -4.9 0  22.00000000000507 -4.9 0  21.80000000000541 -4.9 0  21.60000000000575 -4.9 0  21.40000000000608 -4.9 0  21.20000000000642 -4.9 0  21.00000000000676 -4.9 0  20.8000000000071 -4.9 0  20.60000000000744 -4.9 0  20.40000000000777 -4.9 0  20.20000000000811 -4.9 0  20.00000000000845 -4.9 0  19.80000000000879 -4.9 0  19.60000000000912 -4.9 0  19.40000000000946 -4.9 0  19.2000000000098 -4.9 0  19.00000000001039 -4.9 0  18.80000000001108 -4.9 0  18.60000000001231 -4.9 0  18.40000000001371 -4.9 0  18.2000000000154 -4.9 0  18.00000000001716 -4.9 0  17.80000000001892 -4.9 0  17.60000000002067 -4.9 0  17.40000000002243 -4.9 0  17.20000000002419 -4.9 0  17.00000000002595 -4.9 0  16.80000000002771 -4.9 0  16.60000000002947 -4.9 0  16.40000000003123 -4.9 0  16.20000000003299 -4.9 0  16.00000000003472 -4.9 0  15.80000000003612 -4.9 0  15.60000000003748 -4.9 0  15.40000000003853 -4.9 0  15.20000000003958 -4.9 0  15.00000000004063 -4.9 0  14.80000000004168 -4.9 0  14.60000000004273 -4.9 0  14.40000000004377 -4.9 0  14.20000000004482 -4.9 0  14.00000000004587 -4.9 0  13.80000000004692 -4.9 0  13.60000000004797 -4.9 0  13.40000000004902 -4.9 0  13.20000000005007 -4.9 0  13.00000000005111 -4.9 0  12.80000000005216 -4.9 0  12.60000000005321 -4.9 0  12.40000000005426 -4.9 0  12.20000000005531 -4.9 0  12.00000000005636 -4.9 0  11.80000000005741 -4.9 0  11.60000000005846 -4.9 0  11.4000000000595 -4.9 0  11.20000000006055 -4.9 0  11.0000000000616 -4.9 0  10.80000000006265 -4.9 0  10.6000000000637 -4.9 0  10.40000000006475 -4.9 0  10.2000000000658 -4.9 0  10.00000000006684 -4.9 0  9.800000000067891 -4.9 0  9.60000000006894 -4.9 0  9.400000000069989 -4.9 0  9.200000000070727 -4.9 0  9.00000000007142 -4.9 0  8.800000000071787 -4.9 0  8.600000000072125 -4.9 0  8.400000000072467 -4.9 0  8.200000000072805 -4.9 0  8.000000000073143 -4.9 
[...]
<PointData  Vectors="f_7"> 
<DataArray  type="Float64"  Name="f_7"  NumberOfComponents="3" format="ascii">1.9594589116426925e-04 4.6000000000000001e-04 0.0000000000000000e+00  -1.9612554886690905e-04 4.6000000000000001e-04 0.0000000000000000e+00  0.0000000000000000e+00 0.0000000000000000e+00 0.0000000000000000e+00  0.0000000000000000e+00 0.0000000000000000e+00 0.0000000000000000e+00  3.4486153576747560e-05 2.3062564045601389e-04 0.0000000000000000e+00  -3.3761148013156010e-05 2.2672340899193599e-04 0.0000000000000000e+00  1.9324237999022314e-04 4.6000000000000001e-04 0.0000000000000000e+00  1.9051919061055061e-04 4.6000000000000001e-04 0.0000000000000000e+00  1.8777938247445562e-04 4.6000000000000001e-04 0.0000000000000000e+00  1.8498263647714029e-04 4.6000000000000001e-04 0.0000000000000000e+00  1.8217334194726189e-04 4.6000000000000001e-04 0.0000000000000000e+00  1.7932283587471733e-04 4.6000000000000001e-04 0.0000000000000000e+00  1.7645564584477857e-04 4.6000000000000001e-04 0.0000000000000000e+00  1.7355524909246030e-04 4.6000000000000001e-04 0.0000000000000000e+00  1.7064823266086537e-04 4.6000000000000001e-04 0.0000000000000000e+00  1.6771356045879813e-04 4.6000000000000001e-04 0.0000000000000000e+00  1.6476419231497443e-04 4.6000000000000001e-04 0.0000000000000000e+00  1.6181472262246212e-04 4.6000000000000001e-04 0.0000000000000000e+00  1.5883314259246815e-04 4.6000000000000001e-04 0.0000000000000000e+00  1.5585526763909211e-04 4.6000000000000001e-04 0.0000000000000000e+00  1.5287534235191121e-04 4.6000000000000001e-04 0.0000000000000000e+00  1.4989577504630241e-04 4.6000000000000001e-04 0.0000000000000000e+00  1.4689590426143360e-04 4.6000000000000001e-04 0.0000000000000000e+00  1.4390747624566912e-04 4.6000000000000001e-04 0.0000000000000000e+00  1.4092852446460214e-04 4.6000000000000001e-04 0.0000000000000000e+00  1.3793955268452058e-04 4.6000000000000001e-04 0.0000000000000000e+00  1.3496245337749218e-04 4.6000000000000001e-04 0.0000000000000000e+00  1.3199452912848413e-04 4.6000000000000001e-04 0.0000000000000000e+00  1.2904066051207372e-04 4.6000000000000001e-04 0.0000000000000000e+00  1.2610245864560986e-04 4.6000000000000001e-04 0.0000000000000000e+00  1.2315766653185395e-04 4.6000000000000001e-04 0.0000000000000000e+00  1.2023293357737186e-04 4.6000000000000001e-04 0.0000000000000000e+00  1.1732656519849087e-04 4.6000000000000001e-04 0.0000000000000000e+00  1.1443187114488282e-04 4.6000000000000001e-04 0.0000000000000000e+00  1.1155305892907989e-04 4.6000000000000001e-04 0.0000000000000000e+00  1.0869184789667078e-04 4.6000000000000001e-04 0.0000000000000000e+00  1.0584353555658183e-04 4.6000000000000001e-04 0.0000000000000000e+00  1.0301258302897544e-04 4.6000000000000001e-04 0.0000000000000000e+00  1.0019898187658677e-04 4.6000000000000001e-04 0.0000000000000000e+00  9.7405452852620874e-05 4.6000000000000001e-04 0.0000000000000000e+00  9.4616786287180497e-05 4.6000000000000001e-04 0.0000000000000000e+00  9.1849717860551582e-05 4.6000000000000001e-04 0.0000000000000000e+00  8.9095772686799052e-05 4.6000000000000001e-04 0.0000000000000000e+00  8.6359248832869583e-05 4.6000000000000001e-04 0.0000000000000000e+00  8.3630686781329598e-05 4.6000000000000001e-04 0.0000000000000000e+00  8.0916898046488691e-05 4.6000000000000001e-04 0.0000000000000000e+00  7.8216293389429136e-05 4.6000000000000001e-04 0.0000000000000000e+00  7.5525583344254472e-05 4.6000000000000001e-04 0.0000000000000000e+00  7.2843461935549321e-05 4.6000000000000001e-04 0.0000000000000000e+00  7.0168963500137648e-05 4.6000000000000001e-04 0.0000000000000000e+00  6.7500167636942265e-05 4.6000000000000001e-04 0.0000000000000000e+00  6.4836967393477242e-05 4.6000000000000001e-04 0.0000000000000000e+00  6.2178044354564875e-05 4.6000000000000001e-04 0.0000000000000000e+00  5.9521050068500346e-05 4.6000000000000001e-04 0.0000000000000000e+00  5.6865322141624301e-05 4.6000000000000001e-04 0.0000000000000000e+00  5.4210575218834388e-05 4.6000000000000001e-04 0.0000000000000000e+00  5.1553926772712046e-05 4.6000000000000001e-04 0.0000000000000000e+00  4.8894217432432420e-05 4.6000000000000001e-04 0.0000000000000000e+00  4.6232731704039244e-05 4.6000000000000001e-04 0.0000000000000000e+00  4.3565691708063827e-05 4.6000000000000001e-04 0.0000000000000000e+00  4.0898933166333831e-05 4.6000000000000001e-04 0.0000000000000000e+00  3.8228691176279107e-05 4.6000000000000001e-04 0.0000000000000000e+00  3.5556297211653451e-05 4.6000000000000001e-04 0.0000000000000000e+00  3.2882793870191584e-05 4.6000000000000001e-04 0.0000000000000000e+00  3.0213488898740133e-05 4.6000000000000001e-04 0.0000000000000000e+00  2.7547477193451331e-05 4.6000000000000001e-04 0.0000000000000000e+00  2.4901187567716758e-05 4.6000000000000001e-04 0.0000000000000000e+00  2.2268599981516263e-05 4.6000000000000001e-04 0.0000000000000000e+00  1.9658884229460140e-05 4.6000000000000001e-04 0.0000000000000000e+00  1.7076164465794611e-05 4.6000000000000001e-04 0.0000000000000000e+00  1.4531867661378938e-05 4.6000000000000001e-04 0.0000000000000000e+00  1.2046332804391273e-05 4.6000000000000001e-04 0.0000000000000000e+00  9.6245768873083834e-06 4.6000000000000001e-04 0.0000000000000000e+00  7.2944676898865989e-06 4.6000000000000001e-04 0.0000000000000000e+00  5.0371200291611516e-06 4.6000000000000001e-04 0.0000000000000000e+00  2.8585205696083588e-06 4.6000000000000001e-04 0.0000000000000000e+00  8.0567290712541027e-07 4.6000000000000001e-04 0.0000000000000000e+00  -1.0996805270901682e-06 4.6000000000000001e-04 0.0000000000000000e+00  -2.8723839044736738e-06 4.6000000000000001e-04 0.0000000000000000e+00  -4.5264783862202725e-06 4.6000000000000001e-04 0.0000000000000000e+00  -5.9943291143953864e-06 4.6000000000000001e-04 0.0000000000000000e+00  -7.3271557766647231e-06 4.6000000000000001e-04 0.0000000000000000e+00  -8.4921911333808418e-06 4.6000000000000001e-04 0.0000000000000000e+00  -9.4784021780024994e-06 4.6000000000000001e-04 0.0000000000000000e+00  -1.0310735714980662e-05 4.6000000000000001e-04 0.0000000000000000e+00  -1.0996607524427462e-05 4.6000000000000001e-04 0.0000000000000000e+00  -1.1527601490269726e-05 4.6000000000000001e-04 0.0000000000000000e+00  -1.1910072708584743e-05 4.6000000000000001e-04 0.0000000000000000e+00  -1.2152090957825735e-05 4.6000000000000001e-04 0.0000000000000000e+00  -1.2267824292485854e-05 4.6000000000000001e-04 0.0000000000000000e+00  -1.2284391185003289e-05 4.6000000000000001e-04 0.0000000000000000e+00  -1.2207276585359623e-05 4.6000000000000001e-04 0.0000000000000000e+00  -1.2029867808314451e-05 4.6000000000000001e-04 0.0000000000000000e+00  -1.1769604100686555e-05 4.6000000000000001e-04 0.0000000000000000e+00  -1.1458795480947707e-05 4.6000000000000001e-04 0.0000000000000000e+00  -1.1096162235564940e-05 4.6000000000000001e-04 0.0000000000000000e+00  -1.0692168632986141e-05 4.6000000000000001e-04 0.0000000000000000e+00  -1.0243124331349668e-05 4.6000000000000001e-04 0.0000000000000000e+00  -9.7756138399251709e-06 4.6000000000000001e-04 0.0000000000000000e+00  -9.2917964244827421e-06 4.6000000000000001e-04 0.0000000000000000e+00  -8.8015606399078666e-06 4.6000000000000001e-04 0.0000000000000000e+00  -8.3005062425614600e-06 4.6000000000000001e-04 0.0000000000000000e+00  -7.8056214342771863e-06 4.6000000000000001e-04 0.0000000000000000e+00  -7.3184520293104942e-06 4.6000000000000001e-04 0.0000000000000000e+00  -6.8408367233824338e-06 4.6000000000000001e-04 0.0000000000000000e+00  -6.3766887681652724e-06 4.6000000000000001e-04 0.0000000000000000e+00  -5.9299352342975867e-06 4.6000000000000001e-04 0.0000000000000000e+00  -5.5034001889260187e-06 4.6000000000000001e-04 0.0000000000000000e+00  -5.0915710564926078e-06 4.6000000000000001e-04 0.0000000000000000e+00  -4.7033404285483344e-06 4.6000000000000001e-04 0.0000000000000000e+00  -4.3377334026206666e-06 4.6000000000000001e-04 0.0000000000000000e+00  -3.9962729937630555e-06 4.6000000000000001e-04 0.0000000000000000e+00  -3.6775718333952505e-06 4.6000000000000001e-04 0.0000000000000000e+00  -3.3805954826279176e-06 4.6000000000000001e-04 0.0000000000000000e+00  -3.1049040600830228e-06 4.6000000000000001e-04 0.0000000000000000e+00  -2.8518985535485668e-06 4.6000000000000001e-04 0.0000000000000000e+00  -2.6191795101605947e-06 4.6000000000000001e-04 0.0000000000000000e+00  -2.4056477939001190e-06 4.6000000000000001e-04 0.0000000000000000e+00  -2.2080988555610423e-06 4.6000000000000001e-04 0.0000000000000000e+00  -2.0279816373433729e-06 4.6000000000000001e-04 0.0000000000000000e+00  -1.8611337398977810e-06 4.6000000000000001e-04 0.0000000000000000e+00  -1.7083303130726358e-06 4.6000000000000001e-04 0.0000000000000000e+00  -1.5656979379375494e-06 4.6000000000000001e-04 0.0000000000000000e+00  -1.4330527591811930e-06 4.6000000000000001e-04 0.0000000000000000e+00  -1.3080227061849700e-06 4.6000000000000001e-04 0.0000000000000000e+00  -1.1887393698942226e-06 4.6000000000000001e-04 0.0000000000000000e+00  -1.0738004283085634e-06 4.6000000000000001e-04 0.0000000000000000e+00  -9.6133040665169358e-07 4.6000000000000001e-04 0.0000000000000000e+00  -8.4894044522240799e-07 4.6000000000000001e-04 0.0000000000000000e+00  -7.3572158613875263e-07 4.6000000000000001e-04 0.0000000000000000e+00  -6.2016176626159884e-07 4.6000000000000001e-04 0.0000000000000000e+00  -5.0094294824162714e-07 4.6000000000000001e-04 0.0000000000000000e+00  -3.7485853480130395e-07 4.6000000000000001e-04 0.0000000000000000e+00  -2.4278183649532602e-07 4.6000000000000001e-04 0.0000000000000000e+00  -1.0287003477040189e-07 4.6000000000000001e-04 0.0000000000000000e+00  4.7557835482762456e-08 4.6000000000000001e-04 0.0000000000000000e+00  2.0850058028664612e-07 4.6000000000000001e-04 0.0000000000000000e+00  3.8147729136565355e-07 4.6000000000000001e-04 0.0000000000000000e+00  5.6816830851830141e-07 4.6000000000000001e-04 0.0000000000000000e+00  7.6766593154548546e-07 4.6000000000000001e-04 0.0000000000000000e+00  9.8096664791180687e-07 4.6000000000000001e-04 0.0000000000000000e+00  1.2088468424642753e-06 4.6000000000000001e-04 0.0000000000000000e+00  1.4526255925101016e-06 4.6000000000000001e-04 0.0000000000000000e+00  1.7120595845531600e-06 4.6000000000000001e-04 0.0000000000000000e+00  1.9877782098622472e-06 4.6000000000000001e-04 0.0000000000000000e+00  2.2805076510380516e-06 4.6000000000000001e-04 0.0000000000000000e+00  2.5896560483898217e-06 4.6000000000000001e-04 0.0000000000000000e+00  2.9173803677029851e-06 4.6000000000000001e-04 0.0000000000000000e+00  3.2627896367543256e-06 4.6000000000000001e-04 0.0000000000000000e+00  3.6239823428255256e-06 4.6000000000000001e-04 0.0000000000000000e+00  4.0046374551381339e-06 4.6000000000000001e-04 0.0000000000000000e+00  4.4030930907060303e-06 4.6000000000000001e-04 0.0000000000000000e+00  4.8197118946914084e-06 4.6000000000000001e-04 0.0000000000000000e+00  5.2537474875753660e-06 4.6000000000000001e-04 0.0000000000000000e+00  5.7028840377119275e-06 4.6000000000000001e-04 0.0000000000000000e+00  6.1746508910957293e-06 4.6000000000000001e-04 0.0000000000000000e+00  6.6511462112839066e-06 4.6000000000000001e-04 0.0000000000000000e+00  7.1414275871785462e-06 4.6000000000000001e-04 0.0000000000000000e+00  7.6416896412485102e-06 4.6000000000000001e-04 0.0000000000000000e+00  8.1491686958361286e-06 4.6000000000000001e-04 0.0000000000000000e+00  8.6517368528905213e-06 4.6000000000000001e-04 0.0000000000000000e+00  9.1521230064991174e-06 4.6000000000000001e-04 0.0000000000000000e+00  9.6408854878750230e-06 4.6000000000000001e-04 0.0000000000000000e+00  1.0113185408728109e-05 4.6000000000000001e-04 0.0000000000000000e+00  1.0563975472953256e-05 4.6000000000000001e-04 0.0000000000000000e+00  1.0969248699495930e-05 4.6000000000000001e-04 0.0000000000000000e+00  1.1330570577024144e-05 4.6000000000000001e-04 0.0000000000000000e+00  1.1627715887857177e-05 4.6000000000000001e-04 0.0000000000000000e+00  1.1880007966791604e-05 4.6000000000000001e-04 0.0000000000000000e+00  1.2044189809237650e-05 4.6000000000000001e-04 0.0000000000000000e+00  1.2112592214034705e-05 4.6000000000000001e-04 0.0000000000000000e+00  1.2092440942565201e-05 4.6000000000000001e-04 0.0000000000000000e+00  1.1941806253780247e-05 4.6000000000000001e-04 0.0000000000000000e+00  1.1702746555776985e-05 4.6000000000000001e-04 0.0000000000000000e+00  1.1323555047673941e-05 4.6000000000000001e-04 0.0000000000000000e+00  1.0777133136900413e-05 4.6000000000000001e-04 0.0000000000000000e+00  1.0070285919253480e-05 4.6000000000000001e-04 0.0000000000000000e+00  9.2212337128087159e-06 4.6000000000000001e-04 0.0000000000000000e+00  8.2014601162559343e-06 4.6000000000000001e-04 0.0000000000000000e+00  7.0121673600676650e-06 4.6000000000000001e-04 0.0000000000000000e+00  5.6689632292827021e-06 4.6000000000000001e-04 0.0000000000000000e+00  4.1570096174938293e-06 4.6000000000000001e-04 0.0000000000000000e+00  2.5469104631910284e-06 4.6000000000000001e-04 0.0000000000000000e+00  7.4400737993365453e-07 4.6000000000000001e-04 0.0000000000000000e+00  -1.1871186879456089e-06 4.6000000000000001e-04 0.0000000000000000e+00  -3.2389300390004403e-06 4.6000000000000001e-04 0.0000000000000000e+00  -5.4067280421686258e-06 4.6000000000000001e-04 0.0000000000000000e+00  -7.6618029035549126e-06 4.6000000000000001e-04 0.0000000000000000e+00  -1.0018815736610106e-05 4.6000000000000001e-04 0.0000000000000000e+00  -1.2435533814274866e-05 4.6000000000000001e-04 0.0000000000000000e+00  -1.4927293738389956e-05 4.6000000000000001e-04 0.0000000000000000e+00  -1.7462812501311301e-05 4.6000000000000001e-04 0.0000000000000000e+00  -2.0036469799794674e-05 4.6000000000000001e-04 0.0000000000000000e+00  -2.2639634936531674e-05 4.6000000000000001e-04 0.0000000000000000e+00  -2.5272968920652561e-05 4.6000000000000001e-04 0.0000000000000000e+00  -2.7917030562457838e-05 4.6000000000000001e-04 0.0000000000000000e+00  -3.0574674271974493e-05 4.6000000000000001e-04 0.0000000000000000e+00  -3.3237116554433863e-05 4.6000000000000001e-04 0.0000000000000000e+00  -3.5902479830330704e-05 4.6000000000000001e-04 0.0000000000000000e+00  -3.8568263210379294e-05 4.6000000000000001e-04 0.0000000000000000e+00  -4.1232409681813824e-05 4.6000000000000001e-04 0.0000000000000000e+00  -4.3893946930464279e-05 4.6000000000000001e-04 0.0000000000000000e+00  -4.6551752406832654e-05 4.6000000000000001e-04 0.0000000000000000e+00  -4.9207263763962920e-05 4.6000000000000001e-04 0.0000000000000000e+00  -5.1860117880274222e-05 4.6000000000000001e-04 0.0000000000000000e+00  -5.4511393392412586e-05 4.6000000000000001e-04 0.0000000000000000e+00  -5.7160389549995798e-05 4.6000000000000001e-04 0.0000000000000000e+00  -5.9808877410158438e-05 4.6000000000000001e-04 0.0000000000000000e+00  -6.2459459297654264e-05 4.6000000000000001e-04 0.0000000000000000e+00  -6.5112385732883890e-05 4.6000000000000001e-04 0.0000000000000000e+00  -6.7770144176723765e-05 4.6000000000000001e-04 0.0000000000000000e+00  -7.0433260350516029e-05 4.6000000000000001e-04 0.0000000000000000e+00  -7.3101964459054724e-05 4.6000000000000001e-04 0.0000000000000000e+00  -7.5779468182607192e-05 4.6000000000000001e-04 0.0000000000000000e+00  -7.8467088756332625e-05 4.6000000000000001e-04 0.0000000000000000e+00  -8.1166607255371979e-05 4.6000000000000001e-04 0.0000000000000000e+00  -8.3877446604869253e-05 4.6000000000000001e-04 0.0000000000000000e+00  -8.6595509872398825e-05 4.6000000000000001e-04 0.0000000000000000e+00  -8.9330417148093046e-05 4.6000000000000001e-04 0.0000000000000000e+00  -9.2080525644381740e-05 4.6000000000000001e-04 0.0000000000000000e+00  -9.4848783568948249e-05 4.6000000000000001e-04 0.0000000000000000e+00  -9.7623201499070640e-05 4.6000000000000001e-04 0.0000000000000000e+00  -1.0041892694038443e-04 4.6000000000000001e-04 0.0000000000000000e+00  -1.0323442473303784e-04 4.6000000000000001e-04 0.0000000000000000e+00  -1.0605894187936730e-04 4.6000000000000001e-04 0.0000000000000000e+00  -1.0890307411001821e-04 4.6000000000000001e-04 0.0000000000000000e+00  -1.1176422264795145e-04 4.6000000000000001e-04 0.0000000000000000e+00  -1.1464311570162692e-04 4.6000000000000001e-04 0.0000000000000000e+00  -1.1753557406848778e-04 4.6000000000000001e-04 0.0000000000000000e+00  -1.2043980078819041e-04 4.6000000000000001e-04 0.0000000000000000e+00  -1.2335901770651453e-04 4.6000000000000001e-04 0.0000000000000000e+00  -1.2629440561687244e-04 4.6000000000000001e-04 0.0000000000000000e+00  -1.2924003790948553e-04 4.6000000000000001e-04 0.0000000000000000e+00  -1.3219560010484436e-04 4.6000000000000001e-04 0.0000000000000000e+00  -1.3516108798946257e-04 4.6000000000000001e-04 0.0000000000000000e+00  -1.3813681409550075e-04 4.6000000000000001e-04 0.0000000000000000e+00  -1.4111500573805251e-04 4.6000000000000001e-04 0.0000000000000000e+00  -1.4410224834379888e-04 4.6000000000000001e-04 0.0000000000000000e+00  -1.4708598221566354e-04 4.6000000000000001e-04 0.0000000000000000e+00  -1.5007575910956235e-04 4.6000000000000001e-04 0.0000000000000000e+00  -1.5306525227502932e-04 4.6000000000000001e-04 0.0000000000000000e+00  -1.5604640408308905e-04 4.6000000000000001e-04 0.0000000000000000e+00  -1.5902341737331554e-04 4.6000000000000001e-04 0.0000000000000000e+00  -1.6199374025781317e-04 4.6000000000000001e-04 0.0000000000000000e+00  -1.6495261512474810e-04 4.6000000000000001e-04 0.0000000000000000e+00  -1.6789566283535081e-04 4.6000000000000001e-04 0.0000000000000000e+00  -1.7083246619578607e-04 4.6000000000000001e-04 0.0000000000000000e+00  -1.7374643001360837e-04 4.6000000000000001e-04 0.0000000000000000e+00  -1.7663915749607800e-04 4.6000000000000001e-04 0.0000000000000000e+00  -1.7950877780751836e-04 4.6000000000000001e-04 0.0000000000000000e+00  -1.8234929830325606e-04 4.6000000000000001e-04 0.0000000000000000e+00  -1.8516498326457876e-04 4.6000000000000001e-04 0.0000000000000000e+00  -1.8795559258789188e-04 4.6000000000000001e-04 0.0000000000000000e+00  -1.9069924898987704e-04 4.6000000000000001e-04 0.0000000000000000e+00  -1.9342149876822688e-04 4.6000000000000001e-04 0.0000000000000000e+00  -1.9606137272275913e-04 4.5199289082416814e-04 0.0000000000000000e+00  -1.9588324586805519e-04 4.4398349010023194e-04 0.0000000000000000e+00  -1.9563195734377493e-04 4.3597153972263876e-04 0.0000000000000000e+00  -1.9524344587176239e-04 4.2795654942566881e-04 0.0000000000000000e+00  -1.9475754025980021e-04 4.1995155713686692e-04 0.0000000000000000e+00  -1.9413941532929761e-04 4.1192145809528066e-04 0.0000000000000000e+00  -1.9342505832989666e-04 4.0390648664173406e-04 0.0000000000000000e+00  -1.9260288922282249e-04 3.9587075056135785e-04 0.0000000000000000e+00  -1.9165693850141109e-04 3.8783176869266550e-04 0.0000000000000000e+00  -1.9059453235551369e-04 3.7980049389277543e-04 0.0000000000000000e+00  -1.8941937295849349e-04 3.7174136841478878e-04 0.0000000000000000e+00  -1.8812366023998511e-04 3.6368072006875854e-04 0.0000000000000000e+00  -1.8671386401498716e-04 3.5559936847373054e-04 0.0000000000000000e+00  -1.8517419248182426e-04 3.4752889938410332e-04 0.0000000000000000e+00  -1.8351946830458805e-04 3.3941805783404942e-04 0.0000000000000000e+00  -1.8173372967938688e-04 3.3128640644279964e-04 0.0000000000000000e+00  -1.7981710972281631e-04 3.2315859457786393e-04 0.0000000000000000e+00  -1.7777284460592074e-04 3.1499035634222408e-04 0.0000000000000000e+00  -1.7558835414650329e-04 3.0682203646588798e-04 0.0000000000000000e+00  -1.7326774021993364e-04 2.9861999579371660e-04 0.0000000000000000e+00  -1.7081401546729767e-04 2.9036701323235193e-04 0.0000000000000000e+00  -1.6820510593219400e-04 2.8212168636059534e-04 0.0000000000000000e+00  -1.6545544065394810e-04 2.7381317889871944e-04 0.0000000000000000e+00  -1.6253971113101688e-04 2.6548820871438706e-04 0.0000000000000000e+00  -1.5948442831015112e-04 2.5710321102628174e-04 0.0000000000000000e+00  -1.5624854700815175e-04 2.4870421624825778e-04 0.0000000000000000e+00  -1.5286651584811890e-04 2.4021356585467505e-04 0.0000000000000000e+