<?xml version="1.0"?>
<VTKFile type="UnstructuredGrid"  version="0.1"  >
<UnstructuredGrid>
<Piece  NumberOfPoints="16512" NumberOfCells="32424">
<Points>
<DataArray  type="Float64"  NumberOfComponents="3"  format="ascii">-25 4.9 0  25 4.9 0  25 -4.9 0  -25 -4.9 0  -10 0 0  10 0 0  -24.80000000000034 4.9 0  -24.60000000000068 4.9 0  -24.40000000000101 4.9 0  -24.20000000000135 4.9 0  -24.00000000000169 4.9 0  -23.80000000000203 4.9 0  -23.60000000000237 4.9 0  -23.40000000000271 4.9 0  -23.20000000000304 4.9 0  -23.00000000000338 4.9 0  -22.80000000000372 4.9 0  -22.60000000000406 4.9 0  -22.40000000000439 4.9 0  -22.20000000000473 4.9 0  -22.00000000000507 4.9 0  -21.80000000000541 4.9 0  -21.60000000000575 4.9 0  -21.40000000000608 4.9 0  -21.20000000000642 4.9 0  -21.00000000000676 4.9 0  -20.8000000000071 4.9 0  -20.60000000000744 4.9 0  -20.40000000000777 4.9 0  -20.20000000000811 4.9 0  -20.00000000000845 4.9 0  -19.80000000000879 4.9 0  -19.60000000000912 4.9 0  -19.40000000000946 4.9 0  -19.2000000000098 4.9 0  -19.00000000001039 4.9 0  -18.80000000001108 4.9 0  -18.60000000001231 4.9 0  -18.40000000001371 4.9 0  -18.2000000000154 4.9 0  -18.00000000001716 4.9 0  -17.80000000001892 4.9 0  -17.60000000002067 4.9 0  -17.40000000002243 4.9 0  -17.20000000002419 4.9 0  -17.00000000002595 4.9 0  -16.80000000002771 4.9 0  -16.60000000002947 4.9 0  -16.40000000003123 4.9 0  -16.20000000003299 4.9 0  -16.00000000003472 4.9 0  -15.80000000003612 4.9 0  -15.60000000003748 4.9 0  -15.40000000003853 4.9 0  -15.20000000003958 4.9 0  -15.00000000004063 4.9 0  -14.80000000004168 4.9 0  -14.60000000004273 4.9 0  -14.40000000004377 4.9 0  -14.20000000004482 4.9 0  -14.00000000004587 4.9 0  -13.80000000004692 4.9 0  -13.60000000004797 4.9 0  -13.40000000004902 4.9 0  -13.20000000005007 4.9 0  -13.00000000005111 4.9 0  -12.80000000005216 4.9 0  -12.60000000005321 4.9 0  -12.40000000005426 4.9 0  -12.20000000005531 4.9 0  -12.00000000005636 4.9 0  -11.80000000005741 4.9 0  -11.60000000005846 4.9 0  -11.4000000000595 4.9 0  -11.20000000006055 4.9 0  -11.0000000000616 4.9 0  -10.80000000006265 4.9 0  -10.6000000000637 4.9 0  -10.40000000006475 4.9 0  -10.2000000000658 4.9 0  -10.00000000006684 4.9 0  -9.800000000067891 4.9 0  -9.60000000006894 4.9 0  -9.400000000069989 4.9 0  -9.200000000070727 4.9 0  -9.00000000007142 4.9 0  -8.800000000071787 4.9 0  -8.600000000072125 4.9 0  -8.400000000072467 4.9 0  -8.200000000072805 4.9 0  -8.000000000073143 4.9 0  -7.800000000073481 4.9 0  -7.60000000007382 4.9 0  -7.400000000074154 4.9 0  -7.200000000074493 4.9 0  -7.000000000074831 4.9 0  -6.800000000075173 4.9 0  -6.600000000075511 4.9 0  -6.400000000075849 4.9 0  -6.200000000076187 4.9 0  -6.000000000076525 4.9 0  -5.800000000076867 4.9 0  -5.600000000077205 4.9 0  -5.400000000077544 4.9 0  -5.200000000077882 4.9 0  -5.00000000007822 4.9 0  -4.800000000078558 4.9 0  -4.600000000078897 4.9 0  -4.400000000079235 4.9 0  -4.200000000079573 4.9 0  -4.000000000079908 4.9 0  -3.800000000080246 4.9 0  -3.600000000080588 4.9 0  -3.400000000080926 4.9 0  -3.200000000081264 4.9 0  -3.000000000081606 4.9 0  -2.800000000081944 4.9 0  -2.600000000082282 4.9 0  -2.40000000008262 4.9 0  -2.200000000082959 4.9 0  -2.000000000083297 4.9 0  -1.800000000083635 4.9 0  -1.600000000083973 4.9 0  -1.400000000084312 4.9 0  -1.20000000008465 4.9 0  -1.000000000084988 4.9 0  -0.8000000000853262 4.9 0  -0.6000000000856645 4.9 0  -0.4000000000860027 4.9 0  -0.2000000000863409 4.9 0  -8.667910833537462e-11 4.9 0  0.1999999999129827 4.9 0  0.3999999999126409 4.9 0  0.5999999999123027 4.9 0  0.7999999999119716 4.9 0  0.9999999999116262 4.9 0  1.199999999911295 4.9 0  1.39999999991095 4.9 0  1.599999999910619 4.9 0  1.799999999910273 4.9 0  1.999999999909939 4.9 0  2.199999999909597 4.9 0  2.399999999909262 4.9 0  2.599999999908921 4.9 0  2.799999999908582 4.9 0  2.999999999908244 4.9 0  3.199999999907906 4.9 0  3.399999999907564 4.9 0  3.599999999907226 4.9 0  3.799999999906888 4.9 0  3.999999999906549 4.9 0  4.199999999906218 4.9 0  4.399999999905873 4.9 0  4.599999999905542 4.9 0  4.799999999905197 4.9 0  4.999999999904865 4.9 0  5.19999999990452 4.9 0  5.399999999904182 4.9 0  5.599999999903844 4.9 0  5.799999999903505 4.9 0  5.999999999903167 4.9 0  6.199999999902829 4.9 0  6.399999999902491 4.9 0  6.599999999902153 4.9 0  6.799999999902379 4.9 0  6.999999999902752 4.9 0  7.199999999903724 4.9 0  7.399999999904807 4.9 0  7.59999999990589 4.9 0  7.799999999906966 4.9 0  7.999999999908056 4.9 0  8.199999999909132 4.9 0  8.399999999910214 4.9 0  8.59999999991129 4.9 0  8.79999999991238 4.9 0  8.999999999913456 4.9 0  9.199999999914539 4.9 0  9.399999999915622 4.9 0  9.599999999916704 4.9 0  9.79999999991778 4.9 0  9.99999999991887 4.9 0  10.19999999991995 4.9 0  10.39999999992103 4.9 0  10.59999999992212 4.9 0  10.79999999992319 4.9 0  10.99999999992428 4.9 0  11.19999999992536 4.9 0  11.39999999992644 4.9 0  11.59999999992752 4.9 0  11.7999999999286 4.9 0  11.99999999992968 4.9 0  12.19999999993077 4.9 0  12.39999999993184 4.9 0  12.59999999993293 4.9 0  12.79999999993401 4.9 0  12.99999999993509 4.9 0  13.19999999993617 4.9 0  13.39999999993726 4.9 0  13.59999999993834 4.9 0  13.79999999993942 4.9 0  13.99999999994051 4.9 0  14.19999999994158 4.9 0  14.39999999994266 4.9 0  14.59999999994375 4.9 0  14.79999999994483 4.9 0  14.99999999994591 4.9 0  15.199999999947 4.9 0  15.39999999994807 4.9 0  15.59999999994915 4.9 0  15.79999999995024 4.9 0  15.99999999995132 4.9 0  16.1999999999524 4.9 0  16.39999999995349 4.9 0  16.59999999995456 4.9 0  16.79999999995565 4.9 0  16.99999999995674 4.9 0  17.19999999995781 4.9 0  17.39999999995889 4.9 0  17.59999999995997 4.9 0  17.79999999996106 4.9 0  17.99999999996214 4.9 0  18.19999999996322 4.9 0  18.3999999999643 4.9 0  18.59999999996538 4.9 0  18.79999999996646 4.9 0  18.99999999996755 4.9 0  19.19999999996863 4.9 0  19.39999999996971 4.9 0  19.59999999997079 4.9 0  19.79999999997187 4.9 0  19.99999999997296 4.9 0  20.19999999997404 4.9 0  20.39999999997512 4.9 0  20.5999999999762 4.9 0  20.79999999997728 4.9 0  20.99999999997836 4.9 0  21.19999999997945 4.9 0  21.39999999998052 4.9 0  21.59999999998161 4.9 0  21.79999999998269 4.9 0  21.99999999998377 4.9 0  22.19999999998485 4.9 0  22.39999999998594 4.9 0  22.59999999998701 4.9 0  22.7999999999881 4.9 0  22.99999999998919 4.9 0  23.19999999999026 4.9 0  23.39999999999135 4.9 0  23.59999999999243 4.9 0  23.79999999999351 4.9 0  23.99999999999459 4.9 0  24.19999999999568 4.9 0  24.39999999999675 4.9 0  24.59999999999783 4.9 0  24.79999999999892 4.9 0  25 4.700000000000415 0  25 4.500000000000868 0  25 4.300000000001562 0  25 4.100000000001831 0  25 3.900000000002072 0  25 3.700000000002459 0  25 3.500000000003038 0  25 3.300000000003653 0  25 3.100000000004294 0  25 2.900000000004838 0  25 2.700000000005293 0  25 2.500000000005957 0  25 2.300000000006508 0  25 2.100000000007153 0  25 1.900000000007722 0  25 1.700000000008417 0  25 1.500000000008938 0  25 1.30000000000963 0  25 1.100000000010154 0  25 0.9000000000108268 0  25 0.7000000000114559 0  25 0.5000000000119762 0  25 0.3000000000126564 0  25 0.1000000000131926 0  25 -0.09999999998679243 0  25 -0.2999999999874587 0  25 -0.4999999999878586 0  25 -0.6999999999884441 0  25 -0.899999999988804 0  25 -1.099999999989427 0  25 -1.299999999989749 0  25 -1.499999999990411 0  25 -1.69999999999073 0  25 -1.899999999991396 0  25 -2.099999999991715 0  25 -2.299999999992381 0  25 -2.499999999993047 0  25 -2.699999999993714 0  25 -2.899999999994227 0  25 -3.099999999994698 0  25 -3.299999999994673 0  25 -3.499999999995339 0  25 -3.699999999996004 0  25 -3.89999999999667 0  25 -4.099999999997335 0  25 -4.299999999998002 0  25 -4.499999999998668 0  25 -4.699999999999335 0  24.80000000000034 -4.9 0  24.60000000000068 -4.9 0  24.40000000000101 -4.9 0  24.20000000000135 -4.9 0  24.00000000000169 -4.9 0  23.80000000000203 -4.9 0  23.60000000000237 -4.9 0  23.40000000000271 -4.9 0  23.20000000000304 -4.9 0  23.00000000000338 -4.9 0  22.80000000000372 -4.9 0  22.60000000000406 -4.9 0  22.40000000000439 -4.9 0  22.20000000000473 -4.9 0  22.00000000000507 -4.9 0  21.80000000000541 -4.9 0  21.60000000000575 -4.9 0  21.40000000000608 -4.9 0  21.20000000000642 -4.9 0  21.00000000000676 -4.9 0  20.8000000000071 -4.9 0  20.60000000000744 -4.9 0  20.40000000000777 -4.9 0  20.20000000000811 -4.9 0  20.00000000000845 -4.9 0  19.80000000000879 -4.9 0  19.60000000000912 -4.9 0  19.40000000000946 -4.9 0  19.2000000000098 -4.9 0  19.00000000001039 -4.9 0  18.80000000001108 -4.9 0  18.60000000001231 -4.9 0  18.40000000001371 -4.9 0  18.2000000000154 -4.9 0  18.00000000001716 -4.9 0  17.80000000001892 -4.9 0  17.60000000002067 -4.9 0  17.40000000002243 -4.9 0  17.20000000002419 -4.9 0  17.00000000002595 -4.9 0  16.80000000002771 -4.9 0  16.60000000002947 -4.9 0  16.40000000003123 -4.9 0  16.20000000003299 -4.9 0  16.00000000003472 -4.9 0  15.80000000003612 -4.9 0  15.60000000003748 -4.9 0  15.40000000003853 -4.9 0  15.20000000003958 -4.9 0  15.00000000004063 -4.9 0  14.80000000004168 -4.9 0  14.60000000004273 -4.9 0  14.40000000004377 -4.9 0  14.20000000004482 -4.9 0  14.00000000004587 -4.9 0  13.80000000004692 -4.9 0  13.60000000004797 -4.9 0  13.40000000004902 -4.9 0  13.20000000005007 -4.9 0  13.00000000005111 -4.9 0  12.80000000005216 -4.9 0  12.60000000005321 -4.9 0  12.40000000005426 -4.9 0  12.20000000005531 -4.9 0  12.00000000005636 -4.9 0  11.80000000005741 -4.9 0  11.60000000005846 -4.9 0  11.4000000000595 -4.9 0  11.20000000006055 -4.9 0  11.0000000000616 -4.9 0  10.80000000006265 -4.9 0  10.6000000000637 -4.9 0  10.40000000006475 -4.9 0  10.2000000000658 -4.9 0  10.00000000006684 -4.9 0  9.800000000067891 -4.9 0  9.60000000006894 -4.9 0  9.400000000069989 -4.9 0  9.200000000070727 -4.9 0  9.00000000007142 -4.9 0  8.800000000071787 -4.9 0  8.600000000072125 -4.9 0  8.400000000072467 -4.9 0  8.200000000072805 -4.9 0  8.000000000073143 -4.9 
[...]
<PointData  Vectors="f_7"> 
<DataArray  type="Float64"  Name="f_7"  NumberOfComponents="3" format="ascii">2.1767316367027621e-04 5.1500000000000005e-04 0.0000000000000000e+00  -2.1788496421987539e-04 5.1500000000000005e-04 0.0000000000000000e+00  0.0000000000000000e+00 0.0000000000000000e+00 0.0000000000000000e+00  0.0000000000000000e+00 0.0000000000000000e+00 0.0000000000000000e+00  3.7636937119413668e-05 2.5839607032117243e-04 0.0000000000000000e+00  -3.6814423051821375e-05 2.5398843761822765e-04 0.0000000000000000e+00  2.1463910471915005e-04 5.1500000000000005e-04 0.0000000000000000e+00  2.1158326482236103e-04 5.1500000000000005e-04 0.0000000000000000e+00  2.0850900823666152e-04 5.1500000000000005e-04 0.0000000000000000e+00  2.0537174651668349e-04 5.1500000000000005e-04 0.0000000000000000e+00  2.0222042864653553e-04 5.1500000000000005e-04 0.0000000000000000e+00  1.9902339490074147e-04 5.1500000000000005e-04 0.0000000000000000e+00  1.9580765566734200e-04 5.1500000000000005e-04 0.0000000000000000e+00  1.9255490703360130e-04 5.1500000000000005e-04 0.0000000000000000e+00  1.8929456732051585e-04 5.1500000000000005e-04 0.0000000000000000e+00  1.8600328499971072e-04 5.1500000000000005e-04 0.0000000000000000e+00  1.8269537666438336e-04 5.1500000000000005e-04 0.0000000000000000e+00  1.7938700272233639e-04 5.1500000000000005e-04 0.0000000000000000e+00  1.7604268082223161e-04 5.1500000000000005e-04 0.0000000000000000e+00  1.7270204275270920e-04 5.1500000000000005e-04 0.0000000000000000e+00  1.6935872885084241e-04 5.1500000000000005e-04 0.0000000000000000e+00  1.6601534580181577e-04 5.1500000000000005e-04 0.0000000000000000e+00  1.6264901488117966e-04 5.1500000000000005e-04 0.0000000000000000e+00  1.5929480266424002e-04 5.1500000000000005e-04 0.0000000000000000e+00  1.5595064331061015e-04 5.1500000000000005e-04 0.0000000000000000e+00  1.5259482204718419e-04 5.1500000000000005e-04 0.0000000000000000e+00  1.4925155284851207e-04 5.1500000000000005e-04 0.0000000000000000e+00  1.4591787695836735e-04 5.1500000000000005e-04 0.0000000000000000e+00  1.4259913856708585e-04 5.1500000000000005e-04 0.0000000000000000e+00  1.3929714844742900e-04 5.1500000000000005e-04 0.0000000000000000e+00  1.3598729068072687e-04 5.1500000000000005e-04 0.0000000000000000e+00  1.3269888416110882e-04 5.1500000000000005e-04 0.0000000000000000e+00  1.2943011858591936e-04 5.1500000000000005e-04 0.0000000000000000e+00  1.2617356391664999e-04 5.1500000000000005e-04 0.0000000000000000e+00  1.2293384750500805e-04 5.1500000000000005e-04 0.0000000000000000e+00  1.1971279452978866e-04 5.1500000000000005e-04 0.0000000000000000e+00  1.1650518398948106e-04 5.1500000000000005e-04 0.0000000000000000e+00  1.1331589703477260e-04 5.1500000000000005e-04 0.0000000000000000e+00  1.1014497725563231e-04 5.1500000000000005e-04 0.0000000000000000e+00  1.0699523678175519e-04 5.1500000000000005e-04 0.0000000000000000e+00  1.0385006204132210e-04 5.1500000000000005e-04 0.0000000000000000e+00  1.0072760879892501e-04 5.1500000000000005e-04 0.0000000000000000e+00  9.7618582266118648e-05 5.1500000000000005e-04 0.0000000000000000e+00  9.4527560224231600e-05 5.1500000000000005e-04 0.0000000000000000e+00  9.1444304284509130e-05 5.1500000000000005e-04 0.0000000000000000e+00  8.8376049010183643e-05 5.1500000000000005e-04 0.0000000000000000e+00  8.5320974231284136e-05 5.1500000000000005e-04 0.0000000000000000e+00  8.2275397576690002e-05 5.1500000000000005e-04 0.0000000000000000e+00  7.9237800030022428e-05 5.1500000000000005e-04 0.0000000000000000e+00  7.6207078789659012e-05 5.1500000000000005e-04 0.0000000000000000e+00  7.3181011140256960e-05 5.1500000000000005e-04 0.0000000000000000e+00  7.0159346133897996e-05 5.1500000000000005e-04 0.0000000000000000e+00  6.7140673209102624e-05 5.1500000000000005e-04 0.0000000000000000e+00  6.4122076830891103e-05 5.1500000000000005e-04 0.0000000000000000e+00  6.1102743926432838e-05 5.1500000000000005e-04 0.0000000000000000e+00  5.8082613798514894e-05 5.1500000000000005e-04 0.0000000000000000e+00  5.5058125856586295e-05 5.1500000000000005e-04 0.0000000000000000e+00  5.2028189085113592e-05 5.1500000000000005e-04 0.0000000000000000e+00  4.8993972651452812e-05 5.1500000000000005e-04 0.0000000000000000e+00  4.5950691421049123e-05 5.1500000000000005e-04 0.0000000000000000e+00  4.2906353394216253e-05 5.1500000000000005e-04 0.0000000000000000e+00  3.9855598505240916e-05 5.1500000000000005e-04 0.0000000000000000e+00  3.6800254445900927e-05 5.1500000000000005e-04 0.0000000000000000e+00  3.3741265319873061e-05 5.1500000000000005e-04 0.0000000000000000e+00  3.0685061157400679e-05 5.1500000000000005e-04 0.0000000000000000e+00  2.7630185263724851e-05 5.1500000000000005e-04 0.0000000000000000e+00  2.4596514706977831e-05 5.1500000000000005e-04 0.0000000000000000e+00  2.1576434887721993e-05 5.1500000000000005e-04 0.0000000000000000e+00  1.8580727963855569e-05 5.1500000000000005e-04 0.0000000000000000e+00  1.5614122416499297e-05 5.1500000000000005e-04 0.0000000000000000e+00  1.2689524545150976e-05 5.1500000000000005e-04 0.0000000000000000e+00  9.8317975236364132e-06 5.1500000000000005e-04 0.0000000000000000e+00  7.0459055656525655e-06 5.1500000000000005e-04 0.0000000000000000e+00  4.3645206158836453e-06 5.1500000000000005e-04 0.0000000000000000e+00  1.7656117696767009e-06 5.1500000000000005e-04 0.0000000000000000e+00  -7.4365713295466723e-07 5.1500000000000005e-04 0.0000000000000000e+00  -3.1083146496375685e-06 5.1500000000000005e-04 0.0000000000000000e+00  -5.3027818118183199e-06 5.1500000000000005e-04 0.0000000000000000e+00  -7.3441559567421642e-06 5.1500000000000005e-04 0.0000000000000000e+00  -9.2488314017254856e-06 5.1500000000000005e-04 0.0000000000000000e+00  -1.0936543875694489e-05 5.1500000000000005e-04 0.0000000000000000e+00  -1.2467645217016996e-05 5.1500000000000005e-04 0.0000000000000000e+00  -1.3803272947068887e-05 5.1500000000000005e-04 0.0000000000000000e+00  -1.4929588152337035e-05 5.1500000000000005e-04 0.0000000000000000e+00  -1.5875469099445974e-05 5.1500000000000005e-04 0.0000000000000000e+00  -1.6649110249897322e-05 5.1500000000000005e-04 0.0000000000000000e+00  -1.7239868457011487e-05 5.1500000000000005e-04 0.0000000000000000e+00  -1.7654550372182030e-05 5.1500000000000005e-04 0.0000000000000000e+00  -1.7901952144558723e-05 5.1500000000000005e-04 0.0000000000000000e+00  -1.7997956440948682e-05 5.1500000000000005e-04 0.0000000000000000e+00  -1.7974581582655374e-05 5.1500000000000005e-04 0.0000000000000000e+00  -1.7837596272768017e-05 5.1500000000000005e-04 0.0000000000000000e+00  -1.7578100163178838e-05 5.1500000000000005e-04 0.0000000000000000e+00  -1.7216068945566564e-05 5.1500000000000005e-04 0.0000000000000000e+00  -1.6790520658235167e-05 5.1500000000000005e-04 0.0000000000000000e+00  -1.6299356566882039e-05 5.1500000000000005e-04 0.0000000000000000e+00  -1.5754454188500085e-05 5.1500000000000005e-04 0.0000000000000000e+00  -1.5150894950150926e-05 5.1500000000000005e-04 0.0000000000000000e+00  -1.4521059248701130e-05 5.1500000000000005e-04 0.0000000000000000e+00  -1.3867287142950547e-05 5.1500000000000005e-04 0.0000000000000000e+00  -1.3201719086693905e-05 5.1500000000000005e-04 0.0000000000000000e+00  -1.2518048233929901e-05 5.1500000000000005e-04 0.0000000000000000e+00  -1.1838592144320737e-05 5.1500000000000005e-04 0.0000000000000000e+00  -1.1164771951595012e-05 5.1500000000000005e-04 0.0000000000000000e+00  -1.0498690911460971e-05 5.1500000000000005e-04 0.0000000000000000e+00  -9.8457717614096651e-06 5.1500000000000005e-04 0.0000000000000000e+00  -9.2113372093063227e-06 5.1500000000000005e-04 0.0000000000000000e+00  -8.5990679854709348e-06 5.1500000000000005e-04 0.0000000000000000e+00  -8.0023778132518709e-06 5.1500000000000005e-04 0.0000000000000000e+00  -7.4331076539770768e-06 5.1500000000000005e-04 0.0000000000000000e+00  -6.8902616973409115e-06 5.1500000000000005e-04 0.0000000000000000e+00  -6.3761333322040011e-06 5.1500000000000005e-04 0.0000000000000000e+00  -5.8895752465569001e-06 5.1500000000000005e-04 0.0000000000000000e+00  -5.4297320054188136e-06 5.1500000000000005e-04 0.0000000000000000e+00  -4.9965249817997052e-06 5.1500000000000005e-04 0.0000000000000000e+00  -4.5921419492657795e-06 5.1500000000000005e-04 0.0000000000000000e+00  -4.2139519007964746e-06 5.1500000000000005e-04 0.0000000000000000e+00  -3.8608424298805323e-06 5.1500000000000005e-04 0.0000000000000000e+00  -3.5293371859110643e-06 5.1500000000000005e-04 0.0000000000000000e+00  -3.2213905116225368e-06 5.1500000000000005e-04 0.0000000000000000e+00  -2.9317005540737096e-06 5.1500000000000005e-04 0.0000000000000000e+00  -2.6617575037418825e-06 5.1500000000000005e-04 0.0000000000000000e+00  -2.4063910024840629e-06 5.1500000000000005e-04 0.0000000000000000e+00  -2.1655933007416797e-06 5.1500000000000005e-04 0.0000000000000000e+00  -1.9361691135705181e-06 5.1500000000000005e-04 0.0000000000000000e+00  -1.7156873902662008e-06 5.1500000000000005e-04 0.0000000000000000e+00  -1.5021785273466727e-06 5.1500000000000005e-04 0.0000000000000000e+00  -1.2930849597103741e-06 5.1500000000000005e-04 0.0000000000000000e+00  -1.0853839257487177e-06 5.1500000000000005e-04 0.0000000000000000e+00  -8.7723829258441645e-07 5.1500000000000005e-04 0.0000000000000000e+00  -6.6674022298744476e-07 5.1500000000000005e-04 0.0000000000000000e+00  -4.5200137981075352e-07 5.1500000000000005e-04 0.0000000000000000e+00  -2.2865282991084422e-07 5.1500000000000005e-04 0.0000000000000000e+00  2.4235992773759638e-09 5.1500000000000005e-04 0.0000000000000000e+00  2.4376474183068108e-07 5.1500000000000005e-04 0.0000000000000000e+00  4.9905162090117123e-07 5.1500000000000005e-04 0.0000000000000000e+00  7.6843250795105240e-07 5.1500000000000005e-04 0.0000000000000000e+00  1.0540383039869218e-06 5.1500000000000005e-04 0.0000000000000000e+00  1.3581954590875052e-06 5.1500000000000005e-04 0.0000000000000000e+00  1.6796643715993091e-06 5.1500000000000005e-04 0.0000000000000000e+00  2.0199032872383221e-06 5.1500000000000005e-04 0.0000000000000000e+00  2.3798307161692449e-06 5.1500000000000005e-04 0.0000000000000000e+00  2.7612107592902431e-06 5.1500000000000005e-04 0.0000000000000000e+00  3.1635476616712146e-06 5.1500000000000005e-04 0.0000000000000000e+00  3.5875544942865509e-06 5.1500000000000005e-04 0.0000000000000000e+00  4.0339026756269324e-06 5.1500000000000005e-04 0.0000000000000000e+00  4.5016361363041111e-06 5.1500000000000005e-04 0.0000000000000000e+00  4.9930914844895229e-06 5.1500000000000005e-04 0.0000000000000000e+00  5.5068079183840097e-06 5.1500000000000005e-04 0.0000000000000000e+00  6.0399711618165165e-06 5.1500000000000005e-04 0.0000000000000000e+00  6.5967200358419319e-06 5.1500000000000005e-04 0.0000000000000000e+00  7.1747710593914110e-06 5.1500000000000005e-04 0.0000000000000000e+00  7.7736465349774769e-06 5.1500000000000005e-04 0.0000000000000000e+00  8.3922036231087124e-06 5.1500000000000005e-04 0.0000000000000000e+00  9.0272947547008378e-06 5.1500000000000005e-04 0.0000000000000000e+00  9.6871737513129714e-06 5.1500000000000005e-04 0.0000000000000000e+00  1.0349989562112179e-05 5.1500000000000005e-04 0.0000000000000000e+00  1.1026005716200707e-05 5.1500000000000005e-04 0.0000000000000000e+00  1.1710515410574156e-05 5.1500000000000005e-04 0.0000000000000000e+00  1.2400431364195325e-05 5.1500000000000005e-04 0.0000000000000000e+00  1.3079464545219268e-05 5.1500000000000005e-04 0.0000000000000000e+00  1.3752069766231391e-05 5.1500000000000005e-04 0.0000000000000000e+00  1.4406388293924018e-05 5.1500000000000005e-04 0.0000000000000000e+00  1.5036543526716634e-05 5.1500000000000005e-04 0.0000000000000000e+00  1.5636625014928936e-05 5.1500000000000005e-04 0.0000000000000000e+00  1.6177710920718519e-05 5.1500000000000005e-04 0.0000000000000000e+00  1.6662047664129924e-05 5.1500000000000005e-04 0.0000000000000000e+00  1.7065769901118471e-05 5.1500000000000005e-04 0.0000000000000000e+00  1.7413565624741530e-05 5.1500000000000005e-04 0.0000000000000000e+00  1.7652969846782294e-05 5.1500000000000005e-04 0.0000000000000000e+00  1.7775746517985098e-05 5.1500000000000005e-04 0.0000000000000000e+00  1.7791516174355641e-05 5.1500000000000005e-04 0.0000000000000000e+00  1.7650618486013494e-05 5.1500000000000005e-04 0.0000000000000000e+00  1.7404223712810404e-05 5.1500000000000005e-04 0.0000000000000000e+00  1.6991151045994421e-05 5.1500000000000005e-04 0.0000000000000000e+00  1.6380348943776782e-05 5.1500000000000005e-04 0.0000000000000000e+00  1.5580035376868010e-05 5.1500000000000005e-04 0.0000000000000000e+00  1.4613121167728844e-05 5.1500000000000005e-04 0.0000000000000000e+00  1.3446419548290116e-05 5.1500000000000005e-04 0.0000000000000000e+00  1.2081892671240749e-05 5.1500000000000005e-04 0.0000000000000000e+00  1.0538605493747251e-05 5.1500000000000005e-04 0.0000000000000000e+00  8.7989181370738738e-06 5.1500000000000005e-04 0.0000000000000000e+00  6.9464335664494731e-06 5.1500000000000005e-04 0.0000000000000000e+00  4.8698203576020562e-06 5.1500000000000005e-04 0.0000000000000000e+00  2.6456890595655166e-06 5.1500000000000005e-04 0.0000000000000000e+00  2.8281968203748544e-07 5.1500000000000005e-04 0.0000000000000000e+00  -2.2130719560510129e-06 5.1500000000000005e-04 0.0000000000000000e+00  -4.8083223645388404e-06 5.1500000000000005e-04 0.0000000000000000e+00  -7.5205306180337578e-06 5.1500000000000005e-04 0.0000000000000000e+00  -1.0299846175251698e-05 5.1500000000000005e-04 0.0000000000000000e+00  -1.3164219022461962e-05 5.1500000000000005e-04 0.0000000000000000e+00  -1.6077382038374689e-05 5.1500000000000005e-04 0.0000000000000000e+00  -1.9032693522928149e-05 5.1500000000000005e-04 0.0000000000000000e+00  -2.2019959387583751e-05 5.1500000000000005e-04 0.0000000000000000e+00  -2.5040367422191228e-05 5.1500000000000005e-04 0.0000000000000000e+00  -2.8070919802651820e-05 5.1500000000000005e-04 0.0000000000000000e+00  -3.1115077323402587e-05 5.1500000000000005e-04 0.0000000000000000e+00  -3.4162721082060377e-05 5.1500000000000005e-04 0.0000000000000000e+00  -3.7211587321622136e-05 5.1500000000000005e-04 0.0000000000000000e+00  -4.0258752780315954e-05 5.1500000000000005e-04 0.0000000000000000e+00  -4.3301970662213154e-05 5.1500000000000005e-04 0.0000000000000000e+00  -4.6340026068345853e-05 5.1500000000000005e-04 0.0000000000000000e+00  -4.9371586208561679e-05 5.1500000000000005e-04 0.0000000000000000e+00  -5.2398736203079458e-05 5.1500000000000005e-04 0.0000000000000000e+00  -5.5420489544550264e-05 5.1500000000000005e-04 0.0000000000000000e+00  -5.8438053914990126e-05 5.1500000000000005e-04 0.0000000000000000e+00  -6.1451479088779395e-05 5.1500000000000005e-04 0.0000000000000000e+00  -6.4462004455953897e-05 5.1500000000000005e-04 0.0000000000000000e+00  -6.7472997572058291e-05 5.1500000000000005e-04 0.0000000000000000e+00  -7.0484674802425104e-05 5.1500000000000005e-04 0.0000000000000000e+00  -7.3499854169291784e-05 5.1500000000000005e-04 0.0000000000000000e+00  -7.6519222063813115e-05 5.1500000000000005e-04 0.0000000000000000e+00  -7.9543043312015060e-05 5.1500000000000005e-04 0.0000000000000000e+00  -8.2575094138956072e-05 5.1500000000000005e-04 0.0000000000000000e+00  -8.5616828217349237e-05 5.1500000000000005e-04 0.0000000000000000e+00  -8.8670268743020923e-05 5.1500000000000005e-04 0.0000000000000000e+00  -9.1734904980667146e-05 5.1500000000000005e-04 0.0000000000000000e+00  -9.4806418543955679e-05 5.1500000000000005e-04 0.0000000000000000e+00  -9.7895221780807475e-05 5.1500000000000005e-04 0.0000000000000000e+00  -1.0099974206170371e-04 5.1500000000000005e-04 0.0000000000000000e+00  -1.0412319885691278e-04 5.1500000000000005e-04 0.0000000000000000e+00  -1.0725260960333116e-04 5.1500000000000005e-04 0.0000000000000000e+00  -1.1040450625732241e-04 5.1500000000000005e-04 0.0000000000000000e+00  -1.1357726646927635e-04 5.1500000000000005e-04 0.0000000000000000e+00  -1.1675918014707716e-04 5.1500000000000005e-04 0.0000000000000000e+00  -1.1996194546052363e-04 5.1500000000000005e-04 0.0000000000000000e+00  -1.2318275788028728e-04 5.1500000000000005e-04 0.0000000000000000e+00  -1.2642244645464176e-04 5.1500000000000005e-04 0.0000000000000000e+00  -1.2967639590635984e-04 5.1500000000000005e-04 0.0000000000000000e+00  -1.3294259331389399e-04 5.1500000000000005e-04 0.0000000000000000e+00  -1.3622475440583574e-04 5.1500000000000005e-04 0.0000000000000000e+00  -1.3952417918361223e-04 5.1500000000000005e-04 0.0000000000000000e+00  -1.4283425360946925e-04 5.1500000000000005e-04 0.0000000000000000e+00  -1.4615472458429400e-04 5.1500000000000005e-04 0.0000000000000000e+00  -1.4948556970961920e-04 5.1500000000000005e-04 0.0000000000000000e+00  -1.5282722411836478e-04 5.1500000000000005e-04 0.0000000000000000e+00  -1.5617103821809373e-04 5.1500000000000005e-04 0.0000000000000000e+00  -1.5952432508266074e-04 5.1500000000000005e-04 0.0000000000000000e+00  -1.6287325296216511e-04 5.1500000000000005e-04 0.0000000000000000e+00  -1.6622836299330575e-04 5.1500000000000005e-04 0.0000000000000000e+00  -1.6958268461057552e-04 5.1500000000000005e-04 0.0000000000000000e+00  -1.7292730106534222e-04 5.1500000000000005e-04 0.0000000000000000e+00  -1.7626690835042592e-04 5.1500000000000005e-04 0.0000000000000000e+00  -1.7959870803309401e-04 5.1500000000000005e-04 0.0000000000000000e+00  -1.8291744102169179e-04 5.1500000000000005e-04 0.0000000000000000e+00  -1.8621827376070501e-04 5.1500000000000005e-04 0.0000000000000000e+00  -1.8951187675005879e-04 5.1500000000000005e-04 0.0000000000000000e+00  -1.9277987242539120e-04 5.1500000000000005e-04 0.0000000000000000e+00  -1.9602408086633817e-04 5.1500000000000005e-04 0.0000000000000000e+00  -1.9924246314386796e-04 5.1500000000000005e-04 0.0000000000000000e+00  -2.0242843469361877e-04 5.1500000000000005e-04 0.0000000000000000e+00  -2.0558675495599286e-04 5.1500000000000005e-04 0.0000000000000000e+00  -2.0871717968065303e-04 5.1500000000000005e-04 0.0000000000000000e+00  -2.1179563760343918e-04 5.1500000000000005e-04 0.0000000000000000e+00  -2.1485037323621284e-04 5.1500000000000005e-04 0.0000000000000000e+00  -2.1781417773554854e-04 5.0601215867976412e-04 0.0000000000000000e+00  -2.1761769136587135e-04 4.9702184384145954e-04 0.0000000000000000e+00  -2.1734052118865566e-04 4.8802880028598033e-04 0.0000000000000000e+00  -2.1691193445796109e-04 4.7903252190191752e-04 0.0000000000000000e+00  -2.1637587693031280e-04 4.7004746852838029e-04 0.0000000000000000e+00  -2.1569392582781522e-04 4.6103488188861620e-04 0.0000000000000000e+00  -2.1490575136778677e-04 4.5203924926545420e-04 0.0000000000000000e+00  -2.1399851669868540e-04 4.4302099867902568e-04 0.0000000000000000e+00  -2.1295456947183509e-04 4.3399949189239511e-04 0.0000000000000000e+00  -2.1178205341056461e-04 4.2498688549494476e-04 0.0000000000000000e+00  -2.1048480283786895e-04 4.1594391703937738e-04 0.0000000000000000e+00  -2.0905441144809054e-04 4.0689970411591668e-04 0.0000000000000000e+00  -2.0749770896965486e-04 3.9783308638231623e-04 0.0000000000000000e+00  -2.0579741976584637e-04 3.8877905892512120e-04 0.0000000000000000e+00  -2.0396973045820610e-04 3.7968086985313166e-04 0.0000000000000000e+00  -2.0199690998235997e-04 3.7056023004745974e-04 0.0000000000000000e+00  -1.9987920927810280e-04 3.6144449652000371e-04 0.0000000000000000e+00  -1.9761984851938296e-04 3.5228462039811089e-04 0.0000000000000000e+00  -1.9520516452054625e-04 3.4312535382687818e-04 0.0000000000000000e+00  -1.9263945222698035e-04 3.3392947405738830e-04 0.0000000000000000e+00  -1.8992579672885313e-04 3.2467779533534977e-04 0.0000000000000000e+00  -1.8704006717942684e-04 3.1543542327838899e-04 0.0000000000000000e+00  -1.8399769299649898e-04 3.0612368732292638e-04 0.0000000000000000e+00  -1.8077107115481054e-04 2.9679450909177570e-04 0.0000000000000000e+00  -1.7738893817311339e-04 2.8739950233447830e-04 0.0000000000000000e+00  -1.7380616773221864e-04 2.7798990161916840e-04 0.0000000000000000e+00  -1.7006036305022409e-04 2.6847930646408931e-04 0.0000000000000000e+00