<?xml version="1.0"?>
<VTKFile type="UnstructuredGrid"  version="0.1"  >
<UnstructuredGrid>
<Piece  NumberOfPoints="16512" NumberOfCells="32424">
<Points>
<DataArray  type="Float64"  NumberOfComponents="3"  format="ascii">-25 4.9 0  25 4.9 0  25 -4.9 0  -25 -4.9 0  -10 0 0  10 0 0  -24.80000000000034 4.9 0  -24.60000000000068 4.9 0  -24.40000000000101 4.9 0  -24.20000000000135 4.9 0  -24.00000000000169 4.9 0  -23.80000000000203 4.9 0  -23.60000000000237 4.9 0  -23.40000000000271 4.9 0  -23.20000000000304 4.9 0  -23.00000000000338 4.9 0  -22.80000000000372 4.9 0  -22.60000000000406 4.9 0  -22.40000000000439 4.9 0  -22.20000000000473 4.9 0  -22.00000000000507 4.9 0  -21.80000000000541 4.9 0  -21.60000000000575 4.9 0  -21.40000000000608 4.9 0  -21.20000000000642 4.9 0  -21.00000000000676 4.9 0  -20.8000000000071 4.9 0  -20.60000000000744 4.9 0  -20.40000000000777 4.9 0  -20.20000000000811 4.9 0  -20.00000000000845 4.9 0  -19.80000000000879 4.9 0  -19.60000000000912 4.9 0  -19.40000000000946 4.9 0  -19.2000000000098 4.9 0  -19.00000000001039 4.9 0  -18.80000000001108 4.9 0  -18.60000000001231 4.9 0  -18.40000000001371 4.9 0  -18.2000000000154 4.9 0  -18.00000000001716 4.9 0  -17.80000000001892 4.9 0  -17.60000000002067 4.9 0  -17.40000000002243 4.9 0  -17.20000000002419 4.9 0  -17.00000000002595 4.9 0  -16.80000000002771 4.9 0  -16.60000000002947 4.9 0  -16.40000000003123 4.9 0  -16.20000000003299 4.9 0  -16.00000000003472 4.9 0  -15.80000000003612 4.9 0  -15.60000000003748 4.9 0  -15.40000000003853 4.9 0  -15.20000000003958 4.9 0  -15.00000000004063 4.9 0  -14.80000000004168 4.9 0  -14.60000000004273 4.9 0  -14.40000000004377 4.9 0  -14.20000000004482 4.9 0  -14.00000000004587 4.9 0  -13.80000000004692 4.9 0  -13.60000000004797 4.9 0  -13.40000000004902 4.9 0  -13.20000000005007 4.9 0  -13.00000000005111 4.9 0  -12.80000000005216 4.9 0  -12.60000000005321 4.9 0  -12.40000000005426 4.9 0  -12.20000000005531 4.9 0  -12.00000000005636 4.9 0  -11.80000000005741 4.9 0  -11.60000000005846 4.9 0  -11.4000000000595 4.9 0  -11.20000000006055 4.9 0  -11.0000000000616 4.9 0  -10.80000000006265 4.9 0  -10.6000000000637 4.9 0  -10.40000000006475 4.9 0  -10.2000000000658 4.9 0  -10.00000000006684 4.9 0  -9.800000000067891 4.9 0  -9.60000000006894 4.9 0  -9.400000000069989 4.9 0  -9.200000000070727 4.9 0  -9.00000000007142 4.9 0  -8.800000000071787 4.9 0  -8.600000000072125 4.9 0  -8.400000000072467 4.9 0  -8.200000000072805 4.9 0  -8.000000000073143 4.9 0  -7.800000000073481 4.9 0  -7.60000000007382 4.9 0  -7.400000000074154 4.9 0  -7.200000000074493 4.9 0  -7.000000000074831 4.9 0  -6.800000000075173 4.9 0  -6.600000000075511 4.9 0  -6.400000000075849 4.9 0  -6.200000000076187 4.9 0  -6.000000000076525 4.9 0  -5.800000000076867 4.9 0  -5.600000000077205 4.9 0  -5.400000000077544 4.9 0  -5.200000000077882 4.9 0  -5.00000000007822 4.9 0  -4.800000000078558 4.9 0  -4.600000000078897 4.9 0  -4.400000000079235 4.9 0  -4.200000000079573 4.9 0  -4.000000000079908 4.9 0  -3.800000000080246 4.9 0  -3.600000000080588 4.9 0  -3.400000000080926 4.9 0  -3.200000000081264 4.9 0  -3.000000000081606 4.9 0  -2.800000000081944 4.9 0  -2.600000000082282 4.9 0  -2.40000000008262 4.9 0  -2.200000000082959 4.9 0  -2.000000000083297 4.9 0  -1.800000000083635 4.9 0  -1.600000000083973 4.9 0  -1.400000000084312 4.9 0  -1.20000000008465 4.9 0  -1.000000000084988 4.9 0  -0.8000000000853262 4.9 0  -0.6000000000856645 4.9 0  -0.4000000000860027 4.9 0  -0.2000000000863409 4.9 0  -8.667910833537462e-11 4.9 0  0.1999999999129827 4.9 0  0.3999999999126409 4.9 0  0.5999999999123027 4.9 0  0.7999999999119716 4.9 0  0.9999999999116262 4.9 0  1.199999999911295 4.9 0  1.39999999991095 4.9 0  1.599999999910619 4.9 0  1.799999999910273 4.9 0  1.999999999909939 4.9 0  2.199999999909597 4.9 0  2.399999999909262 4.9 0  2.599999999908921 4.9 0  2.799999999908582 4.9 0  2.999999999908244 4.9 0  3.199999999907906 4.9 0  3.399999999907564 4.9 0  3.599999999907226 4.9 0  3.799999999906888 4.9 0  3.999999999906549 4.9 0  4.199999999906218 4.9 0  4.399999999905873 4.9 0  4.599999999905542 4.9 0  4.799999999905197 4.9 0  4.999999999904865 4.9 0  5.19999999990452 4.9 0  5.399999999904182 4.9 0  5.599999999903844 4.9 0  5.799999999903505 4.9 0  5.999999999903167 4.9 0  6.199999999902829 4.9 0  6.399999999902491 4.9 0  6.599999999902153 4.9 0  6.799999999902379 4.9 0  6.999999999902752 4.9 0  7.199999999903724 4.9 0  7.399999999904807 4.9 0  7.59999999990589 4.9 0  7.799999999906966 4.9 0  7.999999999908056 4.9 0  8.199999999909132 4.9 0  8.399999999910214 4.9 0  8.59999999991129 4.9 0  8.79999999991238 4.9 0  8.999999999913456 4.9 0  9.199999999914539 4.9 0  9.399999999915622 4.9 0  9.599999999916704 4.9 0  9.79999999991778 4.9 0  9.99999999991887 4.9 0  10.19999999991995 4.9 0  10.39999999992103 4.9 0  10.59999999992212 4.9 0  10.79999999992319 4.9 0  10.99999999992428 4.9 0  11.19999999992536 4.9 0  11.39999999992644 4.9 0  11.59999999992752 4.9 0  11.7999999999286 4.9 0  11.99999999992968 4.9 0  12.19999999993077 4.9 0  12.39999999993184 4.9 0  12.59999999993293 4.9 0  12.79999999993401 4.9 0  12.99999999993509 4.9 0  13.19999999993617 4.9 0  13.39999999993726 4.9 0  13.59999999993834 4.9 0  13.79999999993942 4.9 0  13.99999999994051 4.9 0  14.19999999994158 4.9 0  14.39999999994266 4.9 0  14.59999999994375 4.9 0  14.79999999994483 4.9 0  14.99999999994591 4.9 0  15.199999999947 4.9 0  15.39999999994807 4.9 0  15.59999999994915 4.9 0  15.79999999995024 4.9 0  15.99999999995132 4.9 0  16.1999999999524 4.9 0  16.39999999995349 4.9 0  16.59999999995456 4.9 0  16.79999999995565 4.9 0  16.99999999995674 4.9 0  17.19999999995781 4.9 0  17.39999999995889 4.9 0  17.59999999995997 4.9 0  17.79999999996106 4.9 0  17.99999999996214 4.9 0  18.19999999996322 4.9 0  18.3999999999643 4.9 0  18.59999999996538 4.9 0  18.79999999996646 4.9 0  18.99999999996755 4.9 0  19.19999999996863 4.9 0  19.39999999996971 4.9 0  19.59999999997079 4.9 0  19.79999999997187 4.9 0  19.99999999997296 4.9 0  20.19999999997404 4.9 0  20.39999999997512 4.9 0  20.5999999999762 4.9 0  20.79999999997728 4.9 0  20.99999999997836 4.9 0  21.19999999997945 4.9 0  21.39999999998052 4.9 0  21.59999999998161 4.9 0  21.79999999998269 4.9 0  21.99999999998377 4.9 0  22.19999999998485 4.9 0  22.39999999998594 4.9 0  22.59999999998701 4.9 0  22.7999999999881 4.9 0  22.99999999998919 4.9 0  23.19999999999026 4.9 0  23.39999999999135 4.9 0  23.59999999999243 4.9 0  23.79999999999351 4.9 0  23.99999999999459 4.9 0  24.19999999999568 4.9 0  24.39999999999675 4.9 0  24.59999999999783 4.9 0  24.79999999999892 4.9 0  25 4.700000000000415 0  25 4.500000000000868 0  25 4.300000000001562 0  25 4.100000000001831 0  25 3.900000000002072 0  25 3.700000000002459 0  25 3.500000000003038 0  25 3.300000000003653 0  25 3.100000000004294 0  25 2.900000000004838 0  25 2.700000000005293 0  25 2.500000000005957 0  25 2.300000000006508 0  25 2.100000000007153 0  25 1.900000000007722 0  25 1.700000000008417 0  25 1.500000000008938 0  25 1.30000000000963 0  25 1.100000000010154 0  25 0.9000000000108268 0  25 0.7000000000114559 0  25 0.5000000000119762 0  25 0.3000000000126564 0  25 0.1000000000131926 0  25 -0.09999999998679243 0  25 -0.2999999999874587 0  25 -0.4999999999878586 0  25 -0.6999999999884441 0  25 -0.899999999988804 0  25 -1.099999999989427 0  25 -1.299999999989749 0  25 -1.499999999990411 0  25 -1.69999999999073 0  25 -1.899999999991396 0  25 -2.099999999991715 0  25 -2.299999999992381 0  25 -2.499999999993047 0  25 -2.699999999993714 0  25 -2.899999999994227 0  25 -3.099999999994698 0  25 -3.299999999994673 0  25 -3.499999999995339 0  25 -3.699999999996004 0  25 -3.89999999999667 0  25 -4.099999999997335 0  25 -4.299999999998002 0  25 -4.499999999998668 0  25 -4.699999999999335 0  24.80000000000034 -4.9 0  24.60000000000068 -4.9 0  24.40000000000101 -4.9 0  24.20000000000135 -4.9 0  24.00000000000169 -4.9 0  23.80000000000203 -4.9 0  23.60000000000237 -4.9 0  23.40000000000271 -4.9 0  23.20000000000304 -4.9 0  23.00000000000338 -4.9 0  22.80000000000372 -4.9 0  22.60000000000406 -4.9 0  22.40000000000439 -4.9 0  22.20000000000473 -4.9 0  22.00000000000507 -4.9 0  21.80000000000541 -4.9 0  21.60000000000575 -4.9 0  21.40000000000608 -4.9 0  21.20000000000642 -4.9 0  21.00000000000676 -4.9 0  20.8000000000071 -4.9 0  20.60000000000744 -4.9 0  20.40000000000777 -4.9 0  20.20000000000811 -4.9 0  20.00000000000845 -4.9 0  19.80000000000879 -4.9 0  19.60000000000912 -4.9 0  19.40000000000946 -4.9 0  19.2000000000098 -4.9 0  19.00000000001039 -4.9 0  18.80000000001108 -4.9 0  18.60000000001231 -4.9 0  18.40000000001371 -4.9 0  18.2000000000154 -4.9 0  18.00000000001716 -4.9 0  17.80000000001892 -4.9 0  17.60000000002067 -4.9 0  17.40000000002243 -4.9 0  17.20000000002419 -4.9 0  17.00000000002595 -4.9 0  16.80000000002771 -4.9 0  16.60000000002947 -4.9 0  16.40000000003123 -4.9 0  16.20000000003299 -4.9 0  16.00000000003472 -4.9 0  15.80000000003612 -4.9 0  15.60000000003748 -4.9 0  15.40000000003853 -4.9 0  15.20000000003958 -4.9 0  15.00000000004063 -4.9 0  14.80000000004168 -4.9 0  14.60000000004273 -4.9 0  14.40000000004377 -4.9 0  14.20000000004482 -4.9 0  14.00000000004587 -4.9 0  13.80000000004692 -4.9 0  13.60000000004797 -4.9 0  13.40000000004902 -4.9 0  13.20000000005007 -4.9 0  13.00000000005111 -4.9 0  12.80000000005216 -4.9 0  12.60000000005321 -4.9 0  12.40000000005426 -4.9 0  12.20000000005531 -4.9 0  12.00000000005636 -4.9 0  11.80000000005741 -4.9 0  11.60000000005846 -4.9 0  11.4000000000595 -4.9 0  11.20000000006055 -4.9 0  11.0000000000616 -4.9 0  10.80000000006265 -4.9 0  10.6000000000637 -4.9 0  10.40000000006475 -4.9 0  10.2000000000658 -4.9 0  10.00000000006684 -4.9 0  9.800000000067891 -4.9 0  9.60000000006894 -4.9 0  9.400000000069989 -4.9 0  9.200000000070727 -4.9 0  9.00000000007142 -4.9 0  8.800000000071787 -4.9 0  8.600000000072125 -4.9 0  8.400000000072467 -4.9 0  8.200000000072805 -4.9 0  8.000000000073143 -4.9 
[...]
<PointData  Vectors="f_7"> 
<DataArray  type="Float64"  Name="f_7"  NumberOfComponents="3" format="ascii">2.6215886094340090e-04 6.6500000000000001e-04 0.0000000000000000e+00  -2.6205960710406871e-04 6.6500000000000001e-04 0.0000000000000000e+00  0.0000000000000000e+00 0.0000000000000000e+00 0.0000000000000000e+00  0.0000000000000000e+00 0.0000000000000000e+00 0.0000000000000000e+00  3.6581466914156116e-05 3.3522857418651422e-04 0.0000000000000000e+00  -3.7011699863459363e-05 3.2811899006834634e-04 0.0000000000000000e+00  2.5815998976103734e-04 6.6500000000000001e-04 0.0000000000000000e+00  2.5413577323316213e-04 6.6500000000000001e-04 0.0000000000000000e+00  2.5008987907010794e-04 6.6500000000000001e-04 0.0000000000000000e+00  2.4597085744690171e-04 6.6500000000000001e-04 0.0000000000000000e+00  2.4183361614276997e-04 6.6500000000000001e-04 0.0000000000000000e+00  2.3764205254839894e-04 6.6500000000000001e-04 0.0000000000000000e+00  2.3342605393429202e-04 6.6500000000000001e-04 0.0000000000000000e+00  2.2916414658726510e-04 6.6500000000000001e-04 0.0000000000000000e+00  2.2489045555312747e-04 6.6500000000000001e-04 0.0000000000000000e+00  2.2057705178573782e-04 6.6500000000000001e-04 0.0000000000000000e+00  2.1624028281727717e-04 6.6500000000000001e-04 0.0000000000000000e+00  2.1189902740776376e-04 6.6500000000000001e-04 0.0000000000000000e+00  2.0751140198756277e-04 6.6500000000000001e-04 0.0000000000000000e+00  2.0312340773579431e-04 6.6500000000000001e-04 0.0000000000000000e+00  1.9872776429196251e-04 6.6500000000000001e-04 0.0000000000000000e+00  1.9432684969607168e-04 6.6500000000000001e-04 0.0000000000000000e+00  1.8989393674615287e-04 6.6500000000000001e-04 0.0000000000000000e+00  1.8546903434291535e-04 6.6500000000000001e-04 0.0000000000000000e+00  1.8105097450315144e-04 6.6500000000000001e-04 0.0000000000000000e+00  1.7661298650236055e-04 6.6500000000000001e-04 0.0000000000000000e+00  1.7218305466204173e-04 6.6500000000000001e-04 0.0000000000000000e+00  1.6775804092014697e-04 6.6500000000000001e-04 0.0000000000000000e+00  1.6334352539345927e-04 6.6500000000000001e-04 0.0000000000000000e+00  1.5894192631192819e-04 6.6500000000000001e-04 0.0000000000000000e+00  1.5452481970743375e-04 6.6500000000000001e-04 0.0000000000000000e+00  1.5012435885551886e-04 6.6500000000000001e-04 0.0000000000000000e+00  1.4573917125265768e-04 6.6500000000000001e-04 0.0000000000000000e+00  1.4136034094510875e-04 6.6500000000000001e-04 0.0000000000000000e+00  1.3699293893613073e-04 6.6500000000000001e-04 0.0000000000000000e+00  1.3263823708012064e-04 6.6500000000000001e-04 0.0000000000000000e+00  1.2829000262631779e-04 6.6500000000000001e-04 0.0000000000000000e+00  1.2395330433366211e-04 6.6500000000000001e-04 0.0000000000000000e+00  1.1962878394698704e-04 6.6500000000000001e-04 0.0000000000000000e+00  1.1531754598613428e-04 6.6500000000000001e-04 0.0000000000000000e+00  1.1100270633894722e-04 6.6500000000000001e-04 0.0000000000000000e+00  1.0670136745516307e-04 6.6500000000000001e-04 0.0000000000000000e+00  1.0240368209283953e-04 6.6500000000000001e-04 0.0000000000000000e+00  9.8113037292851737e-05 6.6500000000000001e-04 0.0000000000000000e+00  9.3820071746160194e-05 6.6500000000000001e-04 0.0000000000000000e+00  8.9529901322270972e-05 6.6500000000000001e-04 0.0000000000000000e+00  8.5239768031825111e-05 6.6500000000000001e-04 0.0000000000000000e+00  8.0944972396555776e-05 6.6500000000000001e-04 0.0000000000000000e+00  7.6642976106626898e-05 6.6500000000000001e-04 0.0000000000000000e+00  7.2332151687163370e-05 6.6500000000000001e-04 0.0000000000000000e+00  6.8008897211649258e-05 6.6500000000000001e-04 0.0000000000000000e+00  6.3671509888364231e-05 6.6500000000000001e-04 0.0000000000000000e+00  5.9318888120419123e-05 6.6500000000000001e-04 0.0000000000000000e+00  5.4944280040882303e-05 6.6500000000000001e-04 0.0000000000000000e+00  5.0545896227406638e-05 6.6500000000000001e-04 0.0000000000000000e+00  4.6126403285014038e-05 6.6500000000000001e-04 0.0000000000000000e+00  4.1677723121365156e-05 6.6500000000000001e-04 0.0000000000000000e+00  3.7200651672300489e-05 6.6500000000000001e-04 0.0000000000000000e+00  3.2693813012858832e-05 6.6500000000000001e-04 0.0000000000000000e+00  2.8145210217644323e-05 6.6500000000000001e-04 0.0000000000000000e+00  2.3580644052258307e-05 6.6500000000000001e-04 0.0000000000000000e+00  1.8981119141738305e-05 6.6500000000000001e-04 0.0000000000000000e+00  1.4352505075491737e-05 6.6500000000000001e-04 0.0000000000000000e+00  9.6935711123658870e-06 6.6500000000000001e-04 0.0000000000000000e+00  5.0175923087552041e-06 6.6500000000000001e-04 0.0000000000000000e+00  3.1794465782127923e-07 6.6500000000000001e-04 0.0000000000000000e+00  -4.3644705956624810e-06 6.6500000000000001e-04 0.0000000000000000e+00  -9.0486641916096864e-06 6.6500000000000001e-04 0.0000000000000000e+00  -1.3715575406237735e-05 6.6500000000000001e-04 0.0000000000000000e+00  -1.8358082513537967e-05 6.6500000000000001e-04 0.0000000000000000e+00  -2.2958804940791687e-05 6.6500000000000001e-04 0.0000000000000000e+00  -2.7463956546149039e-05 6.6500000000000001e-04 0.0000000000000000e+00  -3.1874359195184359e-05 6.6500000000000001e-04 0.0000000000000000e+00  -3.6133117077091506e-05 6.6500000000000001e-04 0.0000000000000000e+00  -4.0277425490022245e-05 6.6500000000000001e-04 0.0000000000000000e+00  -4.4293305946379807e-05 6.6500000000000001e-04 0.0000000000000000e+00  -4.8086390446761389e-05 6.6500000000000001e-04 0.0000000000000000e+00  -5.1611213491564689e-05 6.6500000000000001e-04 0.0000000000000000e+00  -5.4894421251590562e-05 6.6500000000000001e-04 0.0000000000000000e+00  -5.7963903255612660e-05 6.6500000000000001e-04 0.0000000000000000e+00  -6.0670110734505353e-05 6.6500000000000001e-04 0.0000000000000000e+00  -6.3121378247898600e-05 6.6500000000000001e-04 0.0000000000000000e+00  -6.5245817002722667e-05 6.6500000000000001e-04 0.0000000000000000e+00  -6.7010629282812081e-05 6.6500000000000001e-04 0.0000000000000000e+00  -6.8462784186901622e-05 6.6500000000000001e-04 0.0000000000000000e+00  -6.9611970092292081e-05 6.6500000000000001e-04 0.0000000000000000e+00  -7.0432751834159822e-05 6.6500000000000001e-04 0.0000000000000000e+00  -7.0931368146005924e-05 6.6500000000000001e-04 0.0000000000000000e+00  -7.1117518457682280e-05 6.6500000000000001e-04 0.0000000000000000e+00  -7.1012385789041436e-05 6.6500000000000001e-04 0.0000000000000000e+00  -7.0674095846673786e-05 6.6500000000000001e-04 0.0000000000000000e+00  -7.0106927451380475e-05 6.6500000000000001e-04 0.0000000000000000e+00  -6.9284593653616225e-05 6.6500000000000001e-04 0.0000000000000000e+00  -6.8237680526751288e-05 6.6500000000000001e-04 0.0000000000000000e+00  -6.7044451783367407e-05 6.6500000000000001e-04 0.0000000000000000e+00  -6.5695258937776196e-05 6.6500000000000001e-04 0.0000000000000000e+00  -6.4206704049607678e-05 6.6500000000000001e-04 0.0000000000000000e+00  -6.2561227910336802e-05 6.6500000000000001e-04 0.0000000000000000e+00  -6.0827433520406089e-05 6.6500000000000001e-04 0.0000000000000000e+00  -5.9005606444193760e-05 6.6500000000000001e-04 0.0000000000000000e+00  -5.7120817464409019e-05 6.6500000000000001e-04 0.0000000000000000e+00  -5.5146144196763928e-05 6.6500000000000001e-04 0.0000000000000000e+00  -5.3144621684464939e-05 6.6500000000000001e-04 0.0000000000000000e+00  -5.1112272158557810e-05 6.6500000000000001e-04 0.0000000000000000e+00  -4.9047899512435267e-05 6.6500000000000001e-04 0.0000000000000000e+00  -4.6966758356215062e-05 6.6500000000000001e-04 0.0000000000000000e+00  -4.4884777867800580e-05 6.6500000000000001e-04 0.0000000000000000e+00  -4.2808271014599970e-05 6.6500000000000001e-04 0.0000000000000000e+00  -4.0715604153108948e-05 6.6500000000000001e-04 0.0000000000000000e+00  -3.8647662849645443e-05 6.6500000000000001e-04 0.0000000000000000e+00  -3.6597477210997710e-05 6.6500000000000001e-04 0.0000000000000000e+00  -3.4568845283212862e-05 6.6500000000000001e-04 0.0000000000000000e+00  -3.2567601699517829e-05 6.6500000000000001e-04 0.0000000000000000e+00  -3.0582992232944726e-05 6.6500000000000001e-04 0.0000000000000000e+00  -2.8628643489529610e-05 6.6500000000000001e-04 0.0000000000000000e+00  -2.6703668807760321e-05 6.6500000000000001e-04 0.0000000000000000e+00  -2.4806296030673217e-05 6.6500000000000001e-04 0.0000000000000000e+00  -2.2939313648721262e-05 6.6500000000000001e-04 0.0000000000000000e+00  -2.1090215088024461e-05 6.6500000000000001e-04 0.0000000000000000e+00  -1.9271303750596672e-05 6.6500000000000001e-04 0.0000000000000000e+00  -1.7476164314242415e-05 6.6500000000000001e-04 0.0000000000000000e+00  -1.5705876939523459e-05 6.6500000000000001e-04 0.0000000000000000e+00  -1.3956113735342243e-05 6.6500000000000001e-04 0.0000000000000000e+00  -1.2228113216888161e-05 6.6500000000000001e-04 0.0000000000000000e+00  -1.0518953410989377e-05 6.6500000000000001e-04 0.0000000000000000e+00  -8.8268557424991344e-06 6.6500000000000001e-04 0.0000000000000000e+00  -7.1508197177439165e-06 6.6500000000000001e-04 0.0000000000000000e+00  -5.4886997189919871e-06 6.6500000000000001e-04 0.0000000000000000e+00  -3.8387060546546814e-06 6.6500000000000001e-04 0.0000000000000000e+00  -2.1976098741706102e-06 6.6500000000000001e-04 0.0000000000000000e+00  -5.6541699253013763e-07 6.6500000000000001e-04 0.0000000000000000e+00  1.0598574712389728e-06 6.6500000000000001e-04 0.0000000000000000e+00  2.6806581203040888e-06 6.6500000000000001e-04 0.0000000000000000e+00  4.2994379998714023e-06 6.6500000000000001e-04 0.0000000000000000e+00  5.9188252157506818e-06 6.6500000000000001e-04 0.0000000000000000e+00  7.5380599469353049e-06 6.6500000000000001e-04 0.0000000000000000e+00  9.1626665491404093e-06 6.6500000000000001e-04 0.0000000000000000e+00  1.0794529312004323e-05 6.6500000000000001e-04 0.0000000000000000e+00  1.2437092921754397e-05 6.6500000000000001e-04 0.0000000000000000e+00  1.4093575105546172e-05 6.6500000000000001e-04 0.0000000000000000e+00  1.5761260209768260e-05 6.6500000000000001e-04 0.0000000000000000e+00  1.7448010547668793e-05 6.6500000000000001e-04 0.0000000000000000e+00  1.9155531057644839e-05 6.6500000000000001e-04 0.0000000000000000e+00  2.0886815849289486e-05 6.6500000000000001e-04 0.0000000000000000e+00  2.2643000983557833e-05 6.6500000000000001e-04 0.0000000000000000e+00  2.4428472828049670e-05 6.6500000000000001e-04 0.0000000000000000e+00  2.6240044618752736e-05 6.6500000000000001e-04 0.0000000000000000e+00  2.8086425339035164e-05 6.6500000000000001e-04 0.0000000000000000e+00  2.9967350890209236e-05 6.6500000000000001e-04 0.0000000000000000e+00  3.1870619241205159e-05 6.6500000000000001e-04 0.0000000000000000e+00  3.3812778854240604e-05 6.6500000000000001e-04 0.0000000000000000e+00  3.5788296153069926e-05 6.6500000000000001e-04 0.0000000000000000e+00  3.7790460701727400e-05 6.6500000000000001e-04 0.0000000000000000e+00  3.9821067116312904e-05 6.6500000000000001e-04 0.0000000000000000e+00  4.1873644137241786e-05 6.6500000000000001e-04 0.0000000000000000e+00  4.3963431788331780e-05 6.6500000000000001e-04 0.0000000000000000e+00  4.6043624303655626e-05 6.6500000000000001e-04 0.0000000000000000e+00  4.8135760732802441e-05 6.6500000000000001e-04 0.0000000000000000e+00  5.0230783727282560e-05 6.6500000000000001e-04 0.0000000000000000e+00  5.2323837913724354e-05 6.6500000000000001e-04 0.0000000000000000e+00  5.4374693434794074e-05 6.6500000000000001e-04 0.0000000000000000e+00  5.6398378321660272e-05 6.6500000000000001e-04 0.0000000000000000e+00  5.8368542534724124e-05 6.6500000000000001e-04 0.0000000000000000e+00  6.0273097183760107e-05 6.6500000000000001e-04 0.0000000000000000e+00  6.2100618053364054e-05 6.6500000000000001e-04 0.0000000000000000e+00  6.3790778815957605e-05 6.6500000000000001e-04 0.0000000000000000e+00  6.5350188916279771e-05 6.6500000000000001e-04 0.0000000000000000e+00  6.6731263577874149e-05 6.6500000000000001e-04 0.0000000000000000e+00  6.7990640441766898e-05 6.6500000000000001e-04 0.0000000000000000e+00  6.9019119638913493e-05 6.6500000000000001e-04 0.0000000000000000e+00  6.9804443483517119e-05 6.6500000000000001e-04 0.0000000000000000e+00  7.0370810240464815e-05 6.6500000000000001e-04 0.0000000000000000e+00  7.0621590334235434e-05 6.6500000000000001e-04 0.0000000000000000e+00  7.0664023309163071e-05 6.6500000000000001e-04 0.0000000000000000e+00  7.0380030115340208e-05 6.6500000000000001e-04 0.0000000000000000e+00  6.9717027423659369e-05 6.6500000000000001e-04 0.0000000000000000e+00  6.8692000837732023e-05 6.6500000000000001e-04 0.0000000000000000e+00  6.7359617946443544e-05 6.6500000000000001e-04 0.0000000000000000e+00  6.5661111607616412e-05 6.6500000000000001e-04 0.0000000000000000e+00  6.3605414819293659e-05 6.6500000000000001e-04 0.0000000000000000e+00  6.1235013032680992e-05 6.6500000000000001e-04 0.0000000000000000e+00  5.8516335025310906e-05 6.6500000000000001e-04 0.0000000000000000e+00  5.5610511573820426e-05 6.6500000000000001e-04 0.0000000000000000e+00  5.2310977617444618e-05 6.6500000000000001e-04 0.0000000000000000e+00  4.8767386117345436e-05 6.6500000000000001e-04 0.0000000000000000e+00  4.4995801363855115e-05 6.6500000000000001e-04 0.0000000000000000e+00  4.1009597073585140e-05 6.6500000000000001e-04 0.0000000000000000e+00  3.6870962676548989e-05 6.6500000000000001e-04 0.0000000000000000e+00  3.2544059512702138e-05 6.6500000000000001e-04 0.0000000000000000e+00  2.8123841768529777e-05 6.6500000000000001e-04 0.0000000000000000e+00  2.3578141407649001e-05 6.6500000000000001e-04 0.0000000000000000e+00  1.8969482562957510e-05 6.6500000000000001e-04 0.0000000000000000e+00  1.4310632148310958e-05 6.6500000000000001e-04 0.0000000000000000e+00  9.6212964689390012e-06 6.6500000000000001e-04 0.0000000000000000e+00  4.8950460176404256e-06 6.6500000000000001e-04 0.0000000000000000e+00  1.7620754673582854e-07 6.6500000000000001e-04 0.0000000000000000e+00  -4.5426550156306115e-06 6.6500000000000001e-04 0.0000000000000000e+00  -9.2448591028291049e-06 6.6500000000000001e-04 0.0000000000000000e+00  -1.3925564985058192e-05 6.6500000000000001e-04 0.0000000000000000e+00  -1.8579446175400418e-05 6.6500000000000001e-04 0.0000000000000000e+00  -2.3204135926958979e-05 6.6500000000000001e-04 0.0000000000000000e+00  -2.7796539141605349e-05 6.6500000000000001e-04 0.0000000000000000e+00  -3.2354003031745254e-05 6.6500000000000001e-04 0.0000000000000000e+00  -3.6884717593199734e-05 6.6500000000000001e-04 0.0000000000000000e+00  -4.1380600015991733e-05 6.6500000000000001e-04 0.0000000000000000e+00  -4.5843252531319635e-05 6.6500000000000001e-04 0.0000000000000000e+00  -5.0282334749328230e-05 6.6500000000000001e-04 0.0000000000000000e+00  -5.4690856706569441e-05 6.6500000000000001e-04 0.0000000000000000e+00  -5.9078386974309360e-05 6.6500000000000001e-04 0.0000000000000000e+00  -6.3444464661680143e-05 6.6500000000000001e-04 0.0000000000000000e+00  -6.7793109447689430e-05 6.6500000000000001e-04 0.0000000000000000e+00  -7.2126331469371896e-05 6.6500000000000001e-04 0.0000000000000000e+00  -7.6444553292121824e-05 6.6500000000000001e-04 0.0000000000000000e+00  -8.0754733041086619e-05 6.6500000000000001e-04 0.0000000000000000e+00  -8.5058506856386395e-05 6.6500000000000001e-04 0.0000000000000000e+00  -8.9358825884243448e-05 6.6500000000000001e-04 0.0000000000000000e+00  -9.3656588552101653e-05 6.6500000000000001e-04 0.0000000000000000e+00  -9.7949302834838308e-05 6.6500000000000001e-04 0.0000000000000000e+00  -1.0224630814878326e-04 6.6500000000000001e-04 0.0000000000000000e+00  -1.0654864208702687e-04 6.6500000000000001e-04 0.0000000000000000e+00  -1.1085953183764822e-04 6.6500000000000001e-04 0.0000000000000000e+00  -1.1516726567267036e-04 6.6500000000000001e-04 0.0000000000000000e+00  -1.1948830414132396e-04 6.6500000000000001e-04 0.0000000000000000e+00  -1.2382166037547298e-04 6.6500000000000001e-04 0.0000000000000000e+00  -1.2815598130588564e-04 6.6500000000000001e-04 0.0000000000000000e+00  -1.3250449695873873e-04 6.6500000000000001e-04 0.0000000000000000e+00  -1.3686479157520580e-04 6.6500000000000001e-04 0.0000000000000000e+00  -1.4123809593256733e-04 6.6500000000000001e-04 0.0000000000000000e+00  -1.4561917862776689e-04 6.6500000000000001e-04 0.0000000000000000e+00  -1.5000542778354162e-04 6.6500000000000001e-04 0.0000000000000000e+00  -1.5440289625975683e-04 6.6500000000000001e-04 0.0000000000000000e+00  -1.5881301222826349e-04 6.6500000000000001e-04 0.0000000000000000e+00  -1.6322747428328891e-04 6.6500000000000001e-04 0.0000000000000000e+00  -1.6764709419523277e-04 6.6500000000000001e-04 0.0000000000000000e+00  -1.7207164116240470e-04 6.6500000000000001e-04 0.0000000000000000e+00  -1.7650265753522829e-04 6.6500000000000001e-04 0.0000000000000000e+00  -1.8092957081738533e-04 6.6500000000000001e-04 0.0000000000000000e+00  -1.8536114553934256e-04 6.6500000000000001e-04 0.0000000000000000e+00  -1.8978214715041262e-04 6.6500000000000001e-04 0.0000000000000000e+00  -1.9420444390970361e-04 6.6500000000000001e-04 0.0000000000000000e+00  -1.9862032318382171e-04 6.6500000000000001e-04 0.0000000000000000e+00  -2.0301946269359297e-04 6.6500000000000001e-04 0.0000000000000000e+00  -2.0740782226385228e-04 6.6500000000000001e-04 0.0000000000000000e+00  -2.1178245891749549e-04 6.6500000000000001e-04 0.0000000000000000e+00  -2.1613735151892788e-04 6.6500000000000001e-04 0.0000000000000000e+00  -2.2046704937294452e-04 6.6500000000000001e-04 0.0000000000000000e+00  -2.2478467146912179e-04 6.6500000000000001e-04 0.0000000000000000e+00  -2.2906879091640203e-04 6.6500000000000001e-04 0.0000000000000000e+00  -2.3332204771408382e-04 6.6500000000000001e-04 0.0000000000000000e+00  -2.3754244511315273e-04 6.6500000000000001e-04 0.0000000000000000e+00  -2.4172290493541468e-04 6.6500000000000001e-04 0.0000000000000000e+00  -2.4586940683459809e-04 6.6500000000000001e-04 0.0000000000000000e+00  -2.4998191672149437e-04 6.6500000000000001e-04 0.0000000000000000e+00  -2.5403417205676959e-04 6.6500000000000001e-04 0.0000000000000000e+00  -2.5805857702676461e-04 6.6500000000000001e-04 0.0000000000000000e+00  -2.6198034412176102e-04 6.5312754895715608e-04 0.0000000000000000e+00  -2.6176019060352248e-04 6.4125295689093620e-04 0.0000000000000000e+00  -2.6144985129454904e-04 6.2937628095855748e-04 0.0000000000000000e+00  -2.6096927489278275e-04 6.1749735737655223e-04 0.0000000000000000e+00  -2.6036783759746221e-04 6.0563329565041599e-04 0.0000000000000000e+00  -2.5960239321813215e-04 5.9374025873529972e-04 0.0000000000000000e+00  -2.5871708521934931e-04 5.8186932484984727e-04 0.0000000000000000e+00  -2.5769679487200190e-04 5.6997638339181084e-04 0.0000000000000000e+00  -2.5652131475290311e-04 5.5808356134795707e-04 0.0000000000000000e+00  -2.5520049457437199e-04 5.4620534922181576e-04 0.0000000000000000e+00  -2.5373573128491858e-04 5.3429729214764222e-04 0.0000000000000000e+00  -2.5211990339034070e-04 5.2239290043397250e-04 0.0000000000000000e+00  -2.5035709628616366e-04 5.1046842851885715e-04 0.0000000000000000e+00  -2.4842962415745520e-04 4.9856487406364748e-04 0.0000000000000000e+00  -2.4635371995720279e-04 4.8661615961787647e-04 0.0000000000000000e+00  -2.4410807496948330e-04 4.7464814416289732e-04 0.0000000000000000e+00  -2.4169417924306313e-04 4.6269342029922438e-04 0.0000000000000000e+00  -2.3911158118697357e-04 4.5069446699428007e-04 0.0000000000000000e+00  -2.3634745200317453e-04 4.3870432099945249e-04 0.0000000000000000e+00  -2.3340393626560679e-04 4.2667992062633489e-04 0.0000000000000000e+00  -2.3028172784655274e-04 4.1459756456469453e-04 0.0000000000000000e+00  -2.2695632109870405e-04 4.0253564139522467e-04 0.0000000000000000e+00  -2.2343935548257990e-04 3.9039980783623680e-04 0.0000000000000000e+00  -2.1970354483369812e-04 3.7825275274835571e-04 0.0000000000000000e+00  -2.1577520835338237e-04 3.6603641096106940e-04 0.0000000000000000e+00  -2.1160551328789579e-04 3.5381352750818922e-04 0.0000000000000000e+00  -2.0723200367807318e-04 3.4147872496227374e-04 0.0000000000000000e+00  -