<?xml version="1.0"?>
<VTKFile type="UnstructuredGrid"  version="0.1"  >
<UnstructuredGrid>
<Piece  NumberOfPoints="16512" NumberOfCells="32424">
<Points>
<DataArray  type="Float64"  NumberOfComponents="3"  format="ascii">-25 4.9 0  25 4.9 0  25 -4.9 0  -25 -4.9 0  -10 0 0  10 0 0  -24.80000000000034 4.9 0  -24.60000000000068 4.9 0  -24.40000000000101 4.9 0  -24.20000000000135 4.9 0  -24.00000000000169 4.9 0  -23.80000000000203 4.9 0  -23.60000000000237 4.9 0  -23.40000000000271 4.9 0  -23.20000000000304 4.9 0  -23.00000000000338 4.9 0  -22.80000000000372 4.9 0  -22.60000000000406 4.9 0  -22.40000000000439 4.9 0  -22.20000000000473 4.9 0  -22.00000000000507 4.9 0  -21.80000000000541 4.9 0  -21.60000000000575 4.9 0  -21.40000000000608 4.9 0  -21.20000000000642 4.9 0  -21.00000000000676 4.9 0  -20.8000000000071 4.9 0  -20.60000000000744 4.9 0  -20.40000000000777 4.9 0  -20.20000000000811 4.9 0  -20.00000000000845 4.9 0  -19.80000000000879 4.9 0  -19.60000000000912 4.9 0  -19.40000000000946 4.9 0  -19.2000000000098 4.9 0  -19.00000000001039 4.9 0  -18.80000000001108 4.9 0  -18.60000000001231 4.9 0  -18.40000000001371 4.9 0  -18.2000000000154 4.9 0  -18.00000000001716 4.9 0  -17.80000000001892 4.9 0  -17.60000000002067 4.9 0  -17.40000000002243 4.9 0  -17.20000000002419 4.9 0  -17.00000000002595 4.9 0  -16.80000000002771 4.9 0  -16.60000000002947 4.9 0  -16.40000000003123 4.9 0  -16.20000000003299 4.9 0  -16.00000000003472 4.9 0  -15.80000000003612 4.9 0  -15.60000000003748 4.9 0  -15.40000000003853 4.9 0  -15.20000000003958 4.9 0  -15.00000000004063 4.9 0  -14.80000000004168 4.9 0  -14.60000000004273 4.9 0  -14.40000000004377 4.9 0  -14.20000000004482 4.9 0  -14.00000000004587 4.9 0  -13.80000000004692 4.9 0  -13.60000000004797 4.9 0  -13.40000000004902 4.9 0  -13.20000000005007 4.9 0  -13.00000000005111 4.9 0  -12.80000000005216 4.9 0  -12.60000000005321 4.9 0  -12.40000000005426 4.9 0  -12.20000000005531 4.9 0  -12.00000000005636 4.9 0  -11.80000000005741 4.9 0  -11.60000000005846 4.9 0  -11.4000000000595 4.9 0  -11.20000000006055 4.9 0  -11.0000000000616 4.9 0  -10.80000000006265 4.9 0  -10.6000000000637 4.9 0  -10.40000000006475 4.9 0  -10.2000000000658 4.9 0  -10.00000000006684 4.9 0  -9.800000000067891 4.9 0  -9.60000000006894 4.9 0  -9.400000000069989 4.9 0  -9.200000000070727 4.9 0  -9.00000000007142 4.9 0  -8.800000000071787 4.9 0  -8.600000000072125 4.9 0  -8.400000000072467 4.9 0  -8.200000000072805 4.9 0  -8.000000000073143 4.9 0  -7.800000000073481 4.9 0  -7.60000000007382 4.9 0  -7.400000000074154 4.9 0  -7.200000000074493 4.9 0  -7.000000000074831 4.9 0  -6.800000000075173 4.9 0  -6.600000000075511 4.9 0  -6.400000000075849 4.9 0  -6.200000000076187 4.9 0  -6.000000000076525 4.9 0  -5.800000000076867 4.9 0  -5.600000000077205 4.9 0  -5.400000000077544 4.9 0  -5.200000000077882 4.9 0  -5.00000000007822 4.9 0  -4.800000000078558 4.9 0  -4.600000000078897 4.9 0  -4.400000000079235 4.9 0  -4.200000000079573 4.9 0  -4.000000000079908 4.9 0  -3.800000000080246 4.9 0  -3.600000000080588 4.9 0  -3.400000000080926 4.9 0  -3.200000000081264 4.9 0  -3.000000000081606 4.9 0  -2.800000000081944 4.9 0  -2.600000000082282 4.9 0  -2.40000000008262 4.9 0  -2.200000000082959 4.9 0  -2.000000000083297 4.9 0  -1.800000000083635 4.9 0  -1.600000000083973 4.9 0  -1.400000000084312 4.9 0  -1.20000000008465 4.9 0  -1.000000000084988 4.9 0  -0.8000000000853262 4.9 0  -0.6000000000856645 4.9 0  -0.4000000000860027 4.9 0  -0.2000000000863409 4.9 0  -8.667910833537462e-11 4.9 0  0.1999999999129827 4.9 0  0.3999999999126409 4.9 0  0.5999999999123027 4.9 0  0.7999999999119716 4.9 0  0.9999999999116262 4.9 0  1.199999999911295 4.9 0  1.39999999991095 4.9 0  1.599999999910619 4.9 0  1.799999999910273 4.9 0  1.999999999909939 4.9 0  2.199999999909597 4.9 0  2.399999999909262 4.9 0  2.599999999908921 4.9 0  2.799999999908582 4.9 0  2.999999999908244 4.9 0  3.199999999907906 4.9 0  3.399999999907564 4.9 0  3.599999999907226 4.9 0  3.799999999906888 4.9 0  3.999999999906549 4.9 0  4.199999999906218 4.9 0  4.399999999905873 4.9 0  4.599999999905542 4.9 0  4.799999999905197 4.9 0  4.999999999904865 4.9 0  5.19999999990452 4.9 0  5.399999999904182 4.9 0  5.599999999903844 4.9 0  5.799999999903505 4.9 0  5.999999999903167 4.9 0  6.199999999902829 4.9 0  6.399999999902491 4.9 0  6.599999999902153 4.9 0  6.799999999902379 4.9 0  6.999999999902752 4.9 0  7.199999999903724 4.9 0  7.399999999904807 4.9 0  7.59999999990589 4.9 0  7.799999999906966 4.9 0  7.999999999908056 4.9 0  8.199999999909132 4.9 0  8.399999999910214 4.9 0  8.59999999991129 4.9 0  8.79999999991238 4.9 0  8.999999999913456 4.9 0  9.199999999914539 4.9 0  9.399999999915622 4.9 0  9.599999999916704 4.9 0  9.79999999991778 4.9 0  9.99999999991887 4.9 0  10.19999999991995 4.9 0  10.39999999992103 4.9 0  10.59999999992212 4.9 0  10.79999999992319 4.9 0  10.99999999992428 4.9 0  11.19999999992536 4.9 0  11.39999999992644 4.9 0  11.59999999992752 4.9 0  11.7999999999286 4.9 0  11.99999999992968 4.9 0  12.19999999993077 4.9 0  12.39999999993184 4.9 0  12.59999999993293 4.9 0  12.79999999993401 4.9 0  12.99999999993509 4.9 0  13.19999999993617 4.9 0  13.39999999993726 4.9 0  13.59999999993834 4.9 0  13.79999999993942 4.9 0  13.99999999994051 4.9 0  14.19999999994158 4.9 0  14.39999999994266 4.9 0  14.59999999994375 4.9 0  14.79999999994483 4.9 0  14.99999999994591 4.9 0  15.199999999947 4.9 0  15.39999999994807 4.9 0  15.59999999994915 4.9 0  15.79999999995024 4.9 0  15.99999999995132 4.9 0  16.1999999999524 4.9 0  16.39999999995349 4.9 0  16.59999999995456 4.9 0  16.79999999995565 4.9 0  16.99999999995674 4.9 0  17.19999999995781 4.9 0  17.39999999995889 4.9 0  17.59999999995997 4.9 0  17.79999999996106 4.9 0  17.99999999996214 4.9 0  18.19999999996322 4.9 0  18.3999999999643 4.9 0  18.59999999996538 4.9 0  18.79999999996646 4.9 0  18.99999999996755 4.9 0  19.19999999996863 4.9 0  19.39999999996971 4.9 0  19.59999999997079 4.9 0  19.79999999997187 4.9 0  19.99999999997296 4.9 0  20.19999999997404 4.9 0  20.39999999997512 4.9 0  20.5999999999762 4.9 0  20.79999999997728 4.9 0  20.99999999997836 4.9 0  21.19999999997945 4.9 0  21.39999999998052 4.9 0  21.59999999998161 4.9 0  21.79999999998269 4.9 0  21.99999999998377 4.9 0  22.19999999998485 4.9 0  22.39999999998594 4.9 0  22.59999999998701 4.9 0  22.7999999999881 4.9 0  22.99999999998919 4.9 0  23.19999999999026 4.9 0  23.39999999999135 4.9 0  23.59999999999243 4.9 0  23.79999999999351 4.9 0  23.99999999999459 4.9 0  24.19999999999568 4.9 0  24.39999999999675 4.9 0  24.59999999999783 4.9 0  24.79999999999892 4.9 0  25 4.700000000000415 0  25 4.500000000000868 0  25 4.300000000001562 0  25 4.100000000001831 0  25 3.900000000002072 0  25 3.700000000002459 0  25 3.500000000003038 0  25 3.300000000003653 0  25 3.100000000004294 0  25 2.900000000004838 0  25 2.700000000005293 0  25 2.500000000005957 0  25 2.300000000006508 0  25 2.100000000007153 0  25 1.900000000007722 0  25 1.700000000008417 0  25 1.500000000008938 0  25 1.30000000000963 0  25 1.100000000010154 0  25 0.9000000000108268 0  25 0.7000000000114559 0  25 0.5000000000119762 0  25 0.3000000000126564 0  25 0.1000000000131926 0  25 -0.09999999998679243 0  25 -0.2999999999874587 0  25 -0.4999999999878586 0  25 -0.6999999999884441 0  25 -0.899999999988804 0  25 -1.099999999989427 0  25 -1.299999999989749 0  25 -1.499999999990411 0  25 -1.69999999999073 0  25 -1.899999999991396 0  25 -2.099999999991715 0  25 -2.299999999992381 0  25 -2.499999999993047 0  25 -2.699999999993714 0  25 -2.899999999994227 0  25 -3.099999999994698 0  25 -3.299999999994673 0  25 -3.499999999995339 0  25 -3.699999999996004 0  25 -3.89999999999667 0  25 -4.099999999997335 0  25 -4.299999999998002 0  25 -4.499999999998668 0  25 -4.699999999999335 0  24.80000000000034 -4.9 0  24.60000000000068 -4.9 0  24.40000000000101 -4.9 0  24.20000000000135 -4.9 0  24.00000000000169 -4.9 0  23.80000000000203 -4.9 0  23.60000000000237 -4.9 0  23.40000000000271 -4.9 0  23.20000000000304 -4.9 0  23.00000000000338 -4.9 0  22.80000000000372 -4.9 0  22.60000000000406 -4.9 0  22.40000000000439 -4.9 0  22.20000000000473 -4.9 0  22.00000000000507 -4.9 0  21.80000000000541 -4.9 0  21.60000000000575 -4.9 0  21.40000000000608 -4.9 0  21.20000000000642 -4.9 0  21.00000000000676 -4.9 0  20.8000000000071 -4.9 0  20.60000000000744 -4.9 0  20.40000000000777 -4.9 0  20.20000000000811 -4.9 0  20.00000000000845 -4.9 0  19.80000000000879 -4.9 0  19.60000000000912 -4.9 0  19.40000000000946 -4.9 0  19.2000000000098 -4.9 0  19.00000000001039 -4.9 0  18.80000000001108 -4.9 0  18.60000000001231 -4.9 0  18.40000000001371 -4.9 0  18.2000000000154 -4.9 0  18.00000000001716 -4.9 0  17.80000000001892 -4.9 0  17.60000000002067 -4.9 0  17.40000000002243 -4.9 0  17.20000000002419 -4.9 0  17.00000000002595 -4.9 0  16.80000000002771 -4.9 0  16.60000000002947 -4.9 0  16.40000000003123 -4.9 0  16.20000000003299 -4.9 0  16.00000000003472 -4.9 0  15.80000000003612 -4.9 0  15.60000000003748 -4.9 0  15.40000000003853 -4.9 0  15.20000000003958 -4.9 0  15.00000000004063 -4.9 0  14.80000000004168 -4.9 0  14.60000000004273 -4.9 0  14.40000000004377 -4.9 0  14.20000000004482 -4.9 0  14.00000000004587 -4.9 0  13.80000000004692 -4.9 0  13.60000000004797 -4.9 0  13.40000000004902 -4.9 0  13.20000000005007 -4.9 0  13.00000000005111 -4.9 0  12.80000000005216 -4.9 0  12.60000000005321 -4.9 0  12.40000000005426 -4.9 0  12.20000000005531 -4.9 0  12.00000000005636 -4.9 0  11.80000000005741 -4.9 0  11.60000000005846 -4.9 0  11.4000000000595 -4.9 0  11.20000000006055 -4.9 0  11.0000000000616 -4.9 0  10.80000000006265 -4.9 0  10.6000000000637 -4.9 0  10.40000000006475 -4.9 0  10.2000000000658 -4.9 0  10.00000000006684 -4.9 0  9.800000000067891 -4.9 0  9.60000000006894 -4.9 0  9.400000000069989 -4.9 0  9.200000000070727 -4.9 0  9.00000000007142 -4.9 0  8.800000000071787 -4.9 0  8.600000000072125 -4.9 0  8.400000000072467 -4.9 0  8.200000000072805 -4.9 0  8.000000000073143 -4.9 
[...]
<PointData  Vectors="f_7"> 
<DataArray  type="Float64"  Name="f_7"  NumberOfComponents="3" format="ascii">1.7965063265897347e-04 4.2000000000000002e-04 0.0000000000000000e+00  -1.7981280016655699e-04 4.2000000000000002e-04 0.0000000000000000e+00  0.0000000000000000e+00 0.0000000000000000e+00 0.0000000000000000e+00  0.0000000000000000e+00 0.0000000000000000e+00 0.0000000000000000e+00  3.1889041999235198e-05 2.1047404696723421e-04 0.0000000000000000e+00  -3.1225624082062816e-05 2.0693718073210544e-04 0.0000000000000000e+00  1.7718540407238154e-04 4.2000000000000002e-04 0.0000000000000000e+00  1.7470209907757863e-04 4.2000000000000002e-04 0.0000000000000000e+00  1.7220353779835056e-04 4.2000000000000002e-04 0.0000000000000000e+00  1.6965266594449422e-04 4.2000000000000002e-04 0.0000000000000000e+00  1.6709034022470063e-04 4.2000000000000002e-04 0.0000000000000000e+00  1.6449020173978397e-04 4.2000000000000002e-04 0.0000000000000000e+00  1.6187484220636438e-04 4.2000000000000002e-04 0.0000000000000000e+00  1.5922909064571073e-04 4.2000000000000002e-04 0.0000000000000000e+00  1.5657737421583351e-04 4.2000000000000002e-04 0.0000000000000000e+00  1.5390039882762151e-04 4.2000000000000002e-04 0.0000000000000000e+00  1.5121008175226236e-04 4.2000000000000002e-04 0.0000000000000000e+00  1.4851982656562135e-04 4.2000000000000002e-04 0.0000000000000000e+00  1.4580025335486505e-04 4.2000000000000002e-04 0.0000000000000000e+00  1.4308426696011718e-04 4.2000000000000002e-04 0.0000000000000000e+00  1.4036657573556640e-04 4.2000000000000002e-04 0.0000000000000000e+00  1.3764941793462541e-04 4.2000000000000002e-04 0.0000000000000000e+00  1.3491381810080879e-04 4.2000000000000002e-04 0.0000000000000000e+00  1.3218897010934579e-04 4.2000000000000002e-04 0.0000000000000000e+00  1.2947301877450966e-04 4.2000000000000002e-04 0.0000000000000000e+00  1.2674811439791653e-04 4.2000000000000002e-04 0.0000000000000000e+00  1.2403437538695391e-04 4.2000000000000002e-04 0.0000000000000000e+00  1.2132931215218701e-04 4.2000000000000002e-04 0.0000000000000000e+00  1.1863743357016898e-04 4.2000000000000002e-04 0.0000000000000000e+00  1.1596020759970764e-04 4.2000000000000002e-04 0.0000000000000000e+00  1.1327718046001512e-04 4.2000000000000002e-04 0.0000000000000000e+00  1.1061291104773972e-04 4.2000000000000002e-04 0.0000000000000000e+00  1.0796581405782938e-04 4.2000000000000002e-04 0.0000000000000000e+00  1.0532975485309662e-04 4.2000000000000002e-04 0.0000000000000000e+00  1.0270861182374587e-04 4.2000000000000002e-04 0.0000000000000000e+00  1.0010399884501160e-04 4.2000000000000002e-04 0.0000000000000000e+00  9.7511603517947201e-05 4.2000000000000002e-04 0.0000000000000000e+00  9.4935549047383633e-05 4.2000000000000002e-04 0.0000000000000000e+00  9.2375804410905422e-05 4.2000000000000002e-04 0.0000000000000000e+00  8.9834957321230366e-05 4.2000000000000002e-04 0.0000000000000000e+00  8.7298938356594768e-05 4.2000000000000002e-04 0.0000000000000000e+00  8.4783284082175865e-05 4.2000000000000002e-04 0.0000000000000000e+00  8.2280171774471686e-05 4.2000000000000002e-04 0.0000000000000000e+00  7.9793629462946556e-05 4.2000000000000002e-04 0.0000000000000000e+00  7.7314864874289602e-05 4.2000000000000002e-04 0.0000000000000000e+00  7.4850270406724142e-05 4.2000000000000002e-04 0.0000000000000000e+00  7.2398413430797525e-05 4.2000000000000002e-04 0.0000000000000000e+00  6.9956290756910904e-05 4.2000000000000002e-04 0.0000000000000000e+00  6.7522735299259179e-05 4.2000000000000002e-04 0.0000000000000000e+00  6.5096875173518252e-05 4.2000000000000002e-04 0.0000000000000000e+00  6.2676989248313156e-05 4.2000000000000002e-04 0.0000000000000000e+00  6.0263038089945900e-05 4.2000000000000002e-04 0.0000000000000000e+00  5.7853788563404750e-05 4.2000000000000002e-04 0.0000000000000000e+00  5.5447223028227762e-05 4.2000000000000002e-04 0.0000000000000000e+00  5.3042768026918902e-05 4.2000000000000002e-04 0.0000000000000000e+00  5.0640048385764616e-05 4.2000000000000002e-04 0.0000000000000000e+00  4.8236578118185645e-05 4.2000000000000002e-04 0.0000000000000000e+00  4.5831204911583641e-05 4.2000000000000002e-04 0.0000000000000000e+00  4.3425217916278730e-05 4.2000000000000002e-04 0.0000000000000000e+00  4.1015415526296862e-05 4.2000000000000002e-04 0.0000000000000000e+00  3.8606464149182206e-05 4.2000000000000002e-04 0.0000000000000000e+00  3.6195433366293123e-05 4.2000000000000002e-04 0.0000000000000000e+00  3.3783385836332764e-05 4.2000000000000002e-04 0.0000000000000000e+00  3.1371365128101611e-05 4.2000000000000002e-04 0.0000000000000000e+00  2.8963992067483400e-05 4.2000000000000002e-04 0.0000000000000000e+00  2.6560630673533047e-05 4.2000000000000002e-04 0.0000000000000000e+00  2.4175608965971438e-05 4.2000000000000002e-04 0.0000000000000000e+00  2.1803815678847743e-05 4.2000000000000002e-04 0.0000000000000000e+00  1.9453379945812725e-05 4.2000000000000002e-04 0.0000000000000000e+00  1.7128010812529307e-05 4.2000000000000002e-04 0.0000000000000000e+00  1.4838063342558418e-05 4.2000000000000002e-04 0.0000000000000000e+00  1.2601179401426642e-05 4.2000000000000002e-04 0.0000000000000000e+00  1.0422201759113629e-05 4.2000000000000002e-04 0.0000000000000000e+00  8.3258937196981999e-06 4.2000000000000002e-04 0.0000000000000000e+00  6.2954230660083512e-06 4.2000000000000002e-04 0.0000000000000000e+00  4.3360497401306066e-06 4.2000000000000002e-04 0.0000000000000000e+00  2.4895993669964211e-06 4.2000000000000002e-04 0.0000000000000000e+00  7.7535975717379691e-07 4.2000000000000002e-04 0.0000000000000000e+00  -8.1998761796714959e-07 4.2000000000000002e-04 0.0000000000000000e+00  -2.3089501224245867e-06 4.2000000000000002e-04 0.0000000000000000e+00  -3.6317993129011966e-06 4.2000000000000002e-04 0.0000000000000000e+00  -4.8339389917862068e-06 4.2000000000000002e-04 0.0000000000000000e+00  -5.8864167618619274e-06 4.2000000000000002e-04 0.0000000000000000e+00  -6.7797776875190693e-06 4.2000000000000002e-04 0.0000000000000000e+00  -7.5363363650736773e-06 4.2000000000000002e-04 0.0000000000000000e+00  -8.1628723250749308e-06 4.2000000000000002e-04 0.0000000000000000e+00  -8.6521918851867793e-06 4.2000000000000002e-04 0.0000000000000000e+00  -9.0101754366266638e-06 4.2000000000000002e-04 0.0000000000000000e+00  -9.2442314601016259e-06 4.2000000000000002e-04 0.0000000000000000e+00  -9.3672064167269019e-06 4.2000000000000002e-04 0.0000000000000000e+00  -9.4031115677494132e-06 4.2000000000000002e-04 0.0000000000000000e+00  -9.3570433571270134e-06 4.2000000000000002e-04 0.0000000000000000e+00  -9.2235205120252693e-06 4.2000000000000002e-04 0.0000000000000000e+00  -9.0181743221258099e-06 4.2000000000000002e-04 0.0000000000000000e+00  -8.7693018783211960e-06 4.2000000000000002e-04 0.0000000000000000e+00  -8.4759630271368370e-06 4.2000000000000002e-04 0.0000000000000000e+00  -8.1475566057888271e-06 4.2000000000000002e-04 0.0000000000000000e+00  -7.7810274417148166e-06 4.2000000000000002e-04 0.0000000000000000e+00  -7.3995408499855714e-06 4.2000000000000002e-04 0.0000000000000000e+00  -7.0050803019712847e-06 4.2000000000000002e-04 0.0000000000000000e+00  -6.6062388191147576e-06 4.2000000000000002e-04 0.0000000000000000e+00  -6.1995120035445720e-06 4.2000000000000002e-04 0.0000000000000000e+00  -5.7991935458643693e-06 4.2000000000000002e-04 0.0000000000000000e+00  -5.4067915107500819e-06 4.2000000000000002e-04 0.0000000000000000e+00  -5.0239858681854753e-06 4.2000000000000002e-04 0.0000000000000000e+00  -4.6540063060427180e-06 4.2000000000000002e-04 0.0000000000000000e+00  -4.3001137690429336e-06 4.2000000000000002e-04 0.0000000000000000e+00  -3.9647272836582330e-06 4.2000000000000002e-04 0.0000000000000000e+00  -3.6430953824191664e-06 4.2000000000000002e-04 0.0000000000000000e+00  -3.3425921317681042e-06 4.2000000000000002e-04 0.0000000000000000e+00  -3.0623724722035202e-06 4.2000000000000002e-04 0.0000000000000000e+00  -2.8036749247393234e-06 4.2000000000000002e-04 0.0000000000000000e+00  -2.5650957264497569e-06 4.2000000000000002e-04 0.0000000000000000e+00  -2.3457294615090802e-06 4.2000000000000002e-04 0.0000000000000000e+00  -2.1449608898095849e-06 4.2000000000000002e-04 0.0000000000000000e+00  -1.9639522565112892e-06 4.2000000000000002e-04 0.0000000000000000e+00  -1.8005148807851724e-06 4.2000000000000002e-04 0.0000000000000000e+00  -1.6535919741992366e-06 4.2000000000000002e-04 0.0000000000000000e+00  -1.5203558154857014e-06 4.2000000000000002e-04 0.0000000000000000e+00  -1.4019439980286666e-06 4.2000000000000002e-04 0.0000000000000000e+00  -1.2947453129148241e-06 4.2000000000000002e-04 0.0000000000000000e+00  -1.1993392103785073e-06 4.2000000000000002e-04 0.0000000000000000e+00  -1.1123994107286551e-06 4.2000000000000002e-04 0.0000000000000000e+00  -1.0337147269539238e-06 4.2000000000000002e-04 0.0000000000000000e+00  -9.6126119263576393e-07 4.2000000000000002e-04 0.0000000000000000e+00  -8.9342929462592660e-07 4.2000000000000002e-04 0.0000000000000000e+00  -8.2903463903324424e-07 4.2000000000000002e-04 0.0000000000000000e+00  -7.6648973052311156e-07 4.2000000000000002e-04 0.0000000000000000e+00  -7.0372497517055686e-07 4.2000000000000002e-04 0.0000000000000000e+00  -6.4008870253896496e-07 4.2000000000000002e-04 0.0000000000000000e+00  -5.7426541748839503e-07 4.2000000000000002e-04 0.0000000000000000e+00  -5.0515632487472585e-07 4.2000000000000002e-04 0.0000000000000000e+00  -4.3003693501508529e-07 4.2000000000000002e-04 0.0000000000000000e+00  -3.4972003870381335e-07 4.2000000000000002e-04 0.0000000000000000e+00  -2.6264985484603936e-07 4.2000000000000002e-04 0.0000000000000000e+00  -1.6651463270990810e-07 4.2000000000000002e-04 0.0000000000000000e+00  -6.1379623333305076e-08 4.2000000000000002e-04 0.0000000000000000e+00  5.4049574827379123e-08 4.2000000000000002e-04 0.0000000000000000e+00  1.8120377514915675e-07 4.2000000000000002e-04 0.0000000000000000e+00  3.1929229531173741e-07 4.2000000000000002e-04 0.0000000000000000e+00  4.6920785951593705e-07 4.2000000000000002e-04 0.0000000000000000e+00  6.3159365980924595e-07 4.2000000000000002e-04 0.0000000000000000e+00  8.0760951601192602e-07 4.2000000000000002e-04 0.0000000000000000e+00  9.9707287704403378e-07 4.2000000000000002e-04 0.0000000000000000e+00  1.2005752475447488e-06 4.2000000000000002e-04 0.0000000000000000e+00  1.4187845788417505e-06 4.2000000000000002e-04 0.0000000000000000e+00  1.6512763979972242e-06 4.2000000000000002e-04 0.0000000000000000e+00  1.8999608452146968e-06 4.2000000000000002e-04 0.0000000000000000e+00  2.1641106518708218e-06 4.2000000000000002e-04 0.0000000000000000e+00  2.4422903776390745e-06 4.2000000000000002e-04 0.0000000000000000e+00  2.7376572090829298e-06 4.2000000000000002e-04 0.0000000000000000e+00  3.0488310112418295e-06 4.2000000000000002e-04 0.0000000000000000e+00  3.3764249622713857e-06 4.2000000000000002e-04 0.0000000000000000e+00  3.7197599326387161e-06 4.2000000000000002e-04 0.0000000000000000e+00  4.0768833158040109e-06 4.2000000000000002e-04 0.0000000000000000e+00  4.4545843549459769e-06 4.2000000000000002e-04 0.0000000000000000e+00  4.8372881461175616e-06 4.2000000000000002e-04 0.0000000000000000e+00  5.2330508496212494e-06 4.2000000000000002e-04 0.0000000000000000e+00  5.6385590763493425e-06 4.2000000000000002e-04 0.0000000000000000e+00  6.0513170052130268e-06 4.2000000000000002e-04 0.0000000000000000e+00  6.4611915375295169e-06 4.2000000000000002e-04 0.0000000000000000e+00  6.8702206156613403e-06 4.2000000000000002e-04 0.0000000000000000e+00  7.2702783630270111e-06 4.2000000000000002e-04 0.0000000000000000e+00  7.6571403541612153e-06 4.2000000000000002e-04 0.0000000000000000e+00  8.0263355248176166e-06 4.2000000000000002e-04 0.0000000000000000e+00  8.3568526453288271e-06 4.2000000000000002e-04 0.0000000000000000e+00  8.6499390637880709e-06 4.2000000000000002e-04 0.0000000000000000e+00  8.8877326339465989e-06 4.2000000000000002e-04 0.0000000000000000e+00  9.0867390333500611e-06 4.2000000000000002e-04 0.0000000000000000e+00  9.2091474946169171e-06 4.2000000000000002e-04 0.0000000000000000e+00  9.2479185341498737e-06 4.2000000000000002e-04 0.0000000000000000e+00  9.2090941764537188e-06 4.2000000000000002e-04 0.0000000000000000e+00  9.0556217542492184e-06 4.2000000000000002e-04 0.0000000000000000e+00  8.8242145975877304e-06 4.2000000000000002e-04 0.0000000000000000e+00  8.4691537007059540e-06 4.2000000000000002e-04 0.0000000000000000e+00  7.9661093861081574e-06 4.2000000000000002e-04 0.0000000000000000e+00  7.3210631303402226e-06 4.2000000000000002e-04 0.0000000000000000e+00  6.5496134443567796e-06 4.2000000000000002e-04 0.0000000000000000e+00  5.6263350211769644e-06 4.2000000000000002e-04 0.0000000000000000e+00  4.5520831005086442e-06 4.2000000000000002e-04 0.0000000000000000e+00  3.3404214908462520e-06 4.2000000000000002e-04 0.0000000000000000e+00  1.9782626083960159e-06 4.2000000000000002e-04 0.0000000000000000e+00  5.2800236777383943e-07 4.2000000000000002e-04 0.0000000000000000e+00  -1.0943152495988889e-06 4.2000000000000002e-04 0.0000000000000000e+00  -2.8316838211992874e-06 4.2000000000000002e-04 0.0000000000000000e+00  -4.6773860650225311e-06 4.2000000000000002e-04 0.0000000000000000e+00  -6.6273411387788282e-06 4.2000000000000002e-04 0.0000000000000000e+00  -8.6560522935505372e-06 4.2000000000000002e-04 0.0000000000000000e+00  -1.0776375433710362e-05 4.2000000000000002e-04 0.0000000000000000e+00  -1.2950941634281417e-05 4.2000000000000002e-04 0.0000000000000000e+00  -1.5193389247739122e-05 4.2000000000000002e-04 0.0000000000000000e+00  -1.7475767789182656e-05 4.2000000000000002e-04 0.0000000000000000e+00  -1.9793108299641595e-05 4.2000000000000002e-04 0.0000000000000000e+00  -2.2137784122661578e-05 4.2000000000000002e-04 0.0000000000000000e+00  -2.4510206337318560e-05 4.2000000000000002e-04 0.0000000000000000e+00  -2.6893202232124223e-05 4.2000000000000002e-04 0.0000000000000000e+00  -2.9289259962751436e-05 4.2000000000000002e-04 0.0000000000000000e+00  -3.1690507690252973e-05 4.2000000000000002e-04 0.0000000000000000e+00  -3.4095306327045569e-05 4.2000000000000002e-04 0.0000000000000000e+00  -3.6501435461191779e-05 4.2000000000000002e-04 0.0000000000000000e+00  -3.8906999295883078e-05 4.2000000000000002e-04 0.0000000000000000e+00  -4.1311171761150507e-05 4.2000000000000002e-04 0.0000000000000000e+00  -4.3712966468707660e-05 4.2000000000000002e-04 0.0000000000000000e+00  -4.6113479720275545e-05 4.2000000000000002e-04 0.0000000000000000e+00  -4.8512651914681681e-05 4.2000000000000002e-04 0.0000000000000000e+00  -5.0911463679985305e-05 4.2000000000000002e-04 0.0000000000000000e+00  -5.3308901441995077e-05 4.2000000000000002e-04 0.0000000000000000e+00  -5.5706918471515503e-05 4.2000000000000002e-04 0.0000000000000000e+00  -5.8107687688361217e-05 4.2000000000000002e-04 0.0000000000000000e+00  -6.0511466626965106e-05 4.2000000000000002e-04 0.0000000000000000e+00  -6.2920511409255534e-05 4.2000000000000002e-04 0.0000000000000000e+00  -6.5335258343897351e-05 4.2000000000000002e-04 0.0000000000000000e+00  -6.7755914170040818e-05 4.2000000000000002e-04 0.0000000000000000e+00  -7.0185329998703283e-05 4.2000000000000002e-04 0.0000000000000000e+00  -7.2624717669658620e-05 4.2000000000000002e-04 0.0000000000000000e+00  -7.5075689872725998e-05 4.2000000000000002e-04 0.0000000000000000e+00  -7.7537658816765180e-05 4.2000000000000002e-04 0.0000000000000000e+00  -8.0006764193758722e-05 4.2000000000000002e-04 0.0000000000000000e+00  -8.2491948170780450e-05 4.2000000000000002e-04 0.0000000000000000e+00  -8.4991591505559499e-05 4.2000000000000002e-04 0.0000000000000000e+00  -8.7508421831079889e-05 4.2000000000000002e-04 0.0000000000000000e+00  -9.0031296620419896e-05 4.2000000000000002e-04 0.0000000000000000e+00  -9.2574234755718484e-05 4.2000000000000002e-04 0.0000000000000000e+00  -9.5135791486027925e-05 4.2000000000000002e-04 0.0000000000000000e+00  -9.7706003100169687e-05 4.2000000000000002e-04 0.0000000000000000e+00  -1.0029461604171113e-04 4.2000000000000002e-04 0.0000000000000000e+00  -1.0289921076949312e-04 4.2000000000000002e-04 0.0000000000000000e+00  -1.0552044588204931e-04 4.2000000000000002e-04 0.0000000000000000e+00  -1.0815447734716397e-04 4.2000000000000002e-04 0.0000000000000000e+00  -1.1079966481399134e-04 4.2000000000000002e-04 0.0000000000000000e+00  -1.1345890133479501e-04 4.2000000000000002e-04 0.0000000000000000e+00  -1.1613327463315067e-04 4.2000000000000002e-04 0.0000000000000000e+00  -1.1881736418576418e-04 4.2000000000000002e-04 0.0000000000000000e+00  -1.2151083885366124e-04 4.2000000000000002e-04 0.0000000000000000e+00  -1.2421370252438640e-04 4.2000000000000002e-04 0.0000000000000000e+00  -1.2692620267827512e-04 4.2000000000000002e-04 0.0000000000000000e+00  -1.2964121954175934e-04 4.2000000000000002e-04 0.0000000000000000e+00  -1.3236479194044345e-04 4.2000000000000002e-04 0.0000000000000000e+00  -1.3508535122084417e-04 4.2000000000000002e-04 0.0000000000000000e+00  -1.3781168561084734e-04 4.2000000000000002e-04 0.0000000000000000e+00  -1.4053796890707836e-04 4.2000000000000002e-04 0.0000000000000000e+00  -1.4325679826157574e-04 4.2000000000000002e-04 0.0000000000000000e+00  -1.4597201503108493e-04 4.2000000000000002e-04 0.0000000000000000e+00  -1.4868126340884027e-04 4.2000000000000002e-04 0.0000000000000000e+00  -1.5138016986564160e-04 4.2000000000000002e-04 0.0000000000000000e+00  -1.5406470562880247e-04 4.2000000000000002e-04 0.0000000000000000e+00  -1.5674364556045398e-04 4.2000000000000002e-04 0.0000000000000000e+00  -1.5940174892420183e-04 4.2000000000000002e-04 0.0000000000000000e+00  -1.6204046835572461e-04 4.2000000000000002e-04 0.0000000000000000e+00  -1.6465807122683352e-04 4.2000000000000002e-04 0.0000000000000000e+00  -1.6724903119423400e-04 4.2000000000000002e-04 0.0000000000000000e+00  -1.6981724810764381e-04 4.2000000000000002e-04 0.0000000000000000e+00  -1.7236249191679445e-04 4.2000000000000002e-04 0.0000000000000000e+00  -1.7486460226757793e-04 4.2000000000000002e-04 0.0000000000000000e+00  -1.7734706048007731e-04 4.2000000000000002e-04 0.0000000000000000e+00  -1.7975373747014227e-04 4.1269942125592135e-04 0.0000000000000000e+00  -1.7958980871864212e-04 4.0539670969649052e-04 0.0000000000000000e+00  -1.7935854164143918e-04 3.9809161477158227e-04 0.0000000000000000e+00  -1.7900101145794779e-04 3.9078366999089438e-04 0.0000000000000000e+00  -1.7855386711374755e-04 3.8348483960633331e-04 0.0000000000000000e+00  -1.7798506290813096e-04 3.7616283255784535e-04 0.0000000000000000e+00  -1.7732772920660118e-04 3.6885462942964263e-04 0.0000000000000000e+00  -1.7657123691519944e-04 3.6152719027690957e-04 0.0000000000000000e+00  -1.7570090571401251e-04 3.5419662111832017e-04 0.0000000000000000e+00  -1.7472345036428810e-04 3.4687296879381050e-04 0.0000000000000000e+00  -1.7364238792196379e-04 3.3952352740813203e-04 0.0000000000000000e+00  -1.7245045294659423e-04 3.3217249263594001e-04 0.0000000000000000e+00  -1.7115373484406971e-04 3.2480221435540139e-04 0.0000000000000000e+00  -1.6973763723344271e-04 3.1744169286996270e-04 0.0000000000000000e+00  -1.6821587346773731e-04 3.1004385316746937e-04 0.0000000000000000e+00  -1.6657380873625412e-04 3.0262664042818017e-04 0.0000000000000000e+00  -1.6481151974369177e-04 2.9521266567248934e-04 0.0000000000000000e+00  -1.6293213860529425e-04 2.8776128869562544e-04 0.0000000000000000e+00  -1.6092399393042718e-04 2.8030952862924483e-04 0.0000000000000000e+00  -1.5879096176630499e-04 2.7282647914730169e-04 0.0000000000000000e+00  -1.5653591930938387e-04 2.6529637545782373e-04 0.0000000000000000e+00  -1.5413845623300971e-04 2.5777293804816082e-04 0.0000000000000000e+00  -1.5161206545044844e-04 2.5019121199703123e-04 0.0000000000000000e+00  -1.4893331787989457e-04 2.4259402018049801e-04 0.0000000000000000e+00  -1.4612683395712471e-04 2.3494141641654378e-04 0.0000000000000000e+00  -1.4315477480515406e-04 2.2727555962499349e-04 0.0000000000000000e+00  -1.4004901688732769e-04 2.1952530638090731e-04 0.0000000000000000