<?xml version="1.0"?>
<VTKFile type="UnstructuredGrid"  version="0.1"  >
<UnstructuredGrid>
<Piece  NumberOfPoints="16512" NumberOfCells="32424">
<Points>
<DataArray  type="Float64"  NumberOfComponents="3"  format="ascii">-25 4.9 0  25 4.9 0  25 -4.9 0  -25 -4.9 0  -10 0 0  10 0 0  -24.80000000000034 4.9 0  -24.60000000000068 4.9 0  -24.40000000000101 4.9 0  -24.20000000000135 4.9 0  -24.00000000000169 4.9 0  -23.80000000000203 4.9 0  -23.60000000000237 4.9 0  -23.40000000000271 4.9 0  -23.20000000000304 4.9 0  -23.00000000000338 4.9 0  -22.80000000000372 4.9 0  -22.60000000000406 4.9 0  -22.40000000000439 4.9 0  -22.20000000000473 4.9 0  -22.00000000000507 4.9 0  -21.80000000000541 4.9 0  -21.60000000000575 4.9 0  -21.40000000000608 4.9 0  -21.20000000000642 4.9 0  -21.00000000000676 4.9 0  -20.8000000000071 4.9 0  -20.60000000000744 4.9 0  -20.40000000000777 4.9 0  -20.20000000000811 4.9 0  -20.00000000000845 4.9 0  -19.80000000000879 4.9 0  -19.60000000000912 4.9 0  -19.40000000000946 4.9 0  -19.2000000000098 4.9 0  -19.00000000001039 4.9 0  -18.80000000001108 4.9 0  -18.60000000001231 4.9 0  -18.40000000001371 4.9 0  -18.2000000000154 4.9 0  -18.00000000001716 4.9 0  -17.80000000001892 4.9 0  -17.60000000002067 4.9 0  -17.40000000002243 4.9 0  -17.20000000002419 4.9 0  -17.00000000002595 4.9 0  -16.80000000002771 4.9 0  -16.60000000002947 4.9 0  -16.40000000003123 4.9 0  -16.20000000003299 4.9 0  -16.00000000003472 4.9 0  -15.80000000003612 4.9 0  -15.60000000003748 4.9 0  -15.40000000003853 4.9 0  -15.20000000003958 4.9 0  -15.00000000004063 4.9 0  -14.80000000004168 4.9 0  -14.60000000004273 4.9 0  -14.40000000004377 4.9 0  -14.20000000004482 4.9 0  -14.00000000004587 4.9 0  -13.80000000004692 4.9 0  -13.60000000004797 4.9 0  -13.40000000004902 4.9 0  -13.20000000005007 4.9 0  -13.00000000005111 4.9 0  -12.80000000005216 4.9 0  -12.60000000005321 4.9 0  -12.40000000005426 4.9 0  -12.20000000005531 4.9 0  -12.00000000005636 4.9 0  -11.80000000005741 4.9 0  -11.60000000005846 4.9 0  -11.4000000000595 4.9 0  -11.20000000006055 4.9 0  -11.0000000000616 4.9 0  -10.80000000006265 4.9 0  -10.6000000000637 4.9 0  -10.40000000006475 4.9 0  -10.2000000000658 4.9 0  -10.00000000006684 4.9 0  -9.800000000067891 4.9 0  -9.60000000006894 4.9 0  -9.400000000069989 4.9 0  -9.200000000070727 4.9 0  -9.00000000007142 4.9 0  -8.800000000071787 4.9 0  -8.600000000072125 4.9 0  -8.400000000072467 4.9 0  -8.200000000072805 4.9 0  -8.000000000073143 4.9 0  -7.800000000073481 4.9 0  -7.60000000007382 4.9 0  -7.400000000074154 4.9 0  -7.200000000074493 4.9 0  -7.000000000074831 4.9 0  -6.800000000075173 4.9 0  -6.600000000075511 4.9 0  -6.400000000075849 4.9 0  -6.200000000076187 4.9 0  -6.000000000076525 4.9 0  -5.800000000076867 4.9 0  -5.600000000077205 4.9 0  -5.400000000077544 4.9 0  -5.200000000077882 4.9 0  -5.00000000007822 4.9 0  -4.800000000078558 4.9 0  -4.600000000078897 4.9 0  -4.400000000079235 4.9 0  -4.200000000079573 4.9 0  -4.000000000079908 4.9 0  -3.800000000080246 4.9 0  -3.600000000080588 4.9 0  -3.400000000080926 4.9 0  -3.200000000081264 4.9 0  -3.000000000081606 4.9 0  -2.800000000081944 4.9 0  -2.600000000082282 4.9 0  -2.40000000008262 4.9 0  -2.200000000082959 4.9 0  -2.000000000083297 4.9 0  -1.800000000083635 4.9 0  -1.600000000083973 4.9 0  -1.400000000084312 4.9 0  -1.20000000008465 4.9 0  -1.000000000084988 4.9 0  -0.8000000000853262 4.9 0  -0.6000000000856645 4.9 0  -0.4000000000860027 4.9 0  -0.2000000000863409 4.9 0  -8.667910833537462e-11 4.9 0  0.1999999999129827 4.9 0  0.3999999999126409 4.9 0  0.5999999999123027 4.9 0  0.7999999999119716 4.9 0  0.9999999999116262 4.9 0  1.199999999911295 4.9 0  1.39999999991095 4.9 0  1.599999999910619 4.9 0  1.799999999910273 4.9 0  1.999999999909939 4.9 0  2.199999999909597 4.9 0  2.399999999909262 4.9 0  2.599999999908921 4.9 0  2.799999999908582 4.9 0  2.999999999908244 4.9 0  3.199999999907906 4.9 0  3.399999999907564 4.9 0  3.599999999907226 4.9 0  3.799999999906888 4.9 0  3.999999999906549 4.9 0  4.199999999906218 4.9 0  4.399999999905873 4.9 0  4.599999999905542 4.9 0  4.799999999905197 4.9 0  4.999999999904865 4.9 0  5.19999999990452 4.9 0  5.399999999904182 4.9 0  5.599999999903844 4.9 0  5.799999999903505 4.9 0  5.999999999903167 4.9 0  6.199999999902829 4.9 0  6.399999999902491 4.9 0  6.599999999902153 4.9 0  6.799999999902379 4.9 0  6.999999999902752 4.9 0  7.199999999903724 4.9 0  7.399999999904807 4.9 0  7.59999999990589 4.9 0  7.799999999906966 4.9 0  7.999999999908056 4.9 0  8.199999999909132 4.9 0  8.399999999910214 4.9 0  8.59999999991129 4.9 0  8.79999999991238 4.9 0  8.999999999913456 4.9 0  9.199999999914539 4.9 0  9.399999999915622 4.9 0  9.599999999916704 4.9 0  9.79999999991778 4.9 0  9.99999999991887 4.9 0  10.19999999991995 4.9 0  10.39999999992103 4.9 0  10.59999999992212 4.9 0  10.79999999992319 4.9 0  10.99999999992428 4.9 0  11.19999999992536 4.9 0  11.39999999992644 4.9 0  11.59999999992752 4.9 0  11.7999999999286 4.9 0  11.99999999992968 4.9 0  12.19999999993077 4.9 0  12.39999999993184 4.9 0  12.59999999993293 4.9 0  12.79999999993401 4.9 0  12.99999999993509 4.9 0  13.19999999993617 4.9 0  13.39999999993726 4.9 0  13.59999999993834 4.9 0  13.79999999993942 4.9 0  13.99999999994051 4.9 0  14.19999999994158 4.9 0  14.39999999994266 4.9 0  14.59999999994375 4.9 0  14.79999999994483 4.9 0  14.99999999994591 4.9 0  15.199999999947 4.9 0  15.39999999994807 4.9 0  15.59999999994915 4.9 0  15.79999999995024 4.9 0  15.99999999995132 4.9 0  16.1999999999524 4.9 0  16.39999999995349 4.9 0  16.59999999995456 4.9 0  16.79999999995565 4.9 0  16.99999999995674 4.9 0  17.19999999995781 4.9 0  17.39999999995889 4.9 0  17.59999999995997 4.9 0  17.79999999996106 4.9 0  17.99999999996214 4.9 0  18.19999999996322 4.9 0  18.3999999999643 4.9 0  18.59999999996538 4.9 0  18.79999999996646 4.9 0  18.99999999996755 4.9 0  19.19999999996863 4.9 0  19.39999999996971 4.9 0  19.59999999997079 4.9 0  19.79999999997187 4.9 0  19.99999999997296 4.9 0  20.19999999997404 4.9 0  20.39999999997512 4.9 0  20.5999999999762 4.9 0  20.79999999997728 4.9 0  20.99999999997836 4.9 0  21.19999999997945 4.9 0  21.39999999998052 4.9 0  21.59999999998161 4.9 0  21.79999999998269 4.9 0  21.99999999998377 4.9 0  22.19999999998485 4.9 0  22.39999999998594 4.9 0  22.59999999998701 4.9 0  22.7999999999881 4.9 0  22.99999999998919 4.9 0  23.19999999999026 4.9 0  23.39999999999135 4.9 0  23.59999999999243 4.9 0  23.79999999999351 4.9 0  23.99999999999459 4.9 0  24.19999999999568 4.9 0  24.39999999999675 4.9 0  24.59999999999783 4.9 0  24.79999999999892 4.9 0  25 4.700000000000415 0  25 4.500000000000868 0  25 4.300000000001562 0  25 4.100000000001831 0  25 3.900000000002072 0  25 3.700000000002459 0  25 3.500000000003038 0  25 3.300000000003653 0  25 3.100000000004294 0  25 2.900000000004838 0  25 2.700000000005293 0  25 2.500000000005957 0  25 2.300000000006508 0  25 2.100000000007153 0  25 1.900000000007722 0  25 1.700000000008417 0  25 1.500000000008938 0  25 1.30000000000963 0  25 1.100000000010154 0  25 0.9000000000108268 0  25 0.7000000000114559 0  25 0.5000000000119762 0  25 0.3000000000126564 0  25 0.1000000000131926 0  25 -0.09999999998679243 0  25 -0.2999999999874587 0  25 -0.4999999999878586 0  25 -0.6999999999884441 0  25 -0.899999999988804 0  25 -1.099999999989427 0  25 -1.299999999989749 0  25 -1.499999999990411 0  25 -1.69999999999073 0  25 -1.899999999991396 0  25 -2.099999999991715 0  25 -2.299999999992381 0  25 -2.499999999993047 0  25 -2.699999999993714 0  25 -2.899999999994227 0  25 -3.099999999994698 0  25 -3.299999999994673 0  25 -3.499999999995339 0  25 -3.699999999996004 0  25 -3.89999999999667 0  25 -4.099999999997335 0  25 -4.299999999998002 0  25 -4.499999999998668 0  25 -4.699999999999335 0  24.80000000000034 -4.9 0  24.60000000000068 -4.9 0  24.40000000000101 -4.9 0  24.20000000000135 -4.9 0  24.00000000000169 -4.9 0  23.80000000000203 -4.9 0  23.60000000000237 -4.9 0  23.40000000000271 -4.9 0  23.20000000000304 -4.9 0  23.00000000000338 -4.9 0  22.80000000000372 -4.9 0  22.60000000000406 -4.9 0  22.40000000000439 -4.9 0  22.20000000000473 -4.9 0  22.00000000000507 -4.9 0  21.80000000000541 -4.9 0  21.60000000000575 -4.9 0  21.40000000000608 -4.9 0  21.20000000000642 -4.9 0  21.00000000000676 -4.9 0  20.8000000000071 -4.9 0  20.60000000000744 -4.9 0  20.40000000000777 -4.9 0  20.20000000000811 -4.9 0  20.00000000000845 -4.9 0  19.80000000000879 -4.9 0  19.60000000000912 -4.9 0  19.40000000000946 -4.9 0  19.2000000000098 -4.9 0  19.00000000001039 -4.9 0  18.80000000001108 -4.9 0  18.60000000001231 -4.9 0  18.40000000001371 -4.9 0  18.2000000000154 -4.9 0  18.00000000001716 -4.9 0  17.80000000001892 -4.9 0  17.60000000002067 -4.9 0  17.40000000002243 -4.9 0  17.20000000002419 -4.9 0  17.00000000002595 -4.9 0  16.80000000002771 -4.9 0  16.60000000002947 -4.9 0  16.40000000003123 -4.9 0  16.20000000003299 -4.9 0  16.00000000003472 -4.9 0  15.80000000003612 -4.9 0  15.60000000003748 -4.9 0  15.40000000003853 -4.9 0  15.20000000003958 -4.9 0  15.00000000004063 -4.9 0  14.80000000004168 -4.9 0  14.60000000004273 -4.9 0  14.40000000004377 -4.9 0  14.20000000004482 -4.9 0  14.00000000004587 -4.9 0  13.80000000004692 -4.9 0  13.60000000004797 -4.9 0  13.40000000004902 -4.9 0  13.20000000005007 -4.9 0  13.00000000005111 -4.9 0  12.80000000005216 -4.9 0  12.60000000005321 -4.9 0  12.40000000005426 -4.9 0  12.20000000005531 -4.9 0  12.00000000005636 -4.9 0  11.80000000005741 -4.9 0  11.60000000005846 -4.9 0  11.4000000000595 -4.9 0  11.20000000006055 -4.9 0  11.0000000000616 -4.9 0  10.80000000006265 -4.9 0  10.6000000000637 -4.9 0  10.40000000006475 -4.9 0  10.2000000000658 -4.9 0  10.00000000006684 -4.9 0  9.800000000067891 -4.9 0  9.60000000006894 -4.9 0  9.400000000069989 -4.9 0  9.200000000070727 -4.9 0  9.00000000007142 -4.9 0  8.800000000071787 -4.9 0  8.600000000072125 -4.9 0  8.400000000072467 -4.9 0  8.200000000072805 -4.9 0  8.000000000073143 -4.9 
[...]
<PointData  Vectors="f_7"> 
<DataArray  type="Float64"  Name="f_7"  NumberOfComponents="3" format="ascii">2.1956773289528509e-04 5.2000000000000006e-04 0.0000000000000000e+00  -2.1978231816728561e-04 5.2000000000000006e-04 0.0000000000000000e+00  0.0000000000000000e+00 0.0000000000000000e+00 0.0000000000000000e+00  0.0000000000000000e+00 0.0000000000000000e+00 0.0000000000000000e+00  3.7868451739600788e-05 2.6092763618554672e-04 0.0000000000000000e+00  -3.7034352693224809e-05 2.5647278081624759e-04 0.0000000000000000e+00  2.1650327941441307e-04 5.2000000000000006e-04 0.0000000000000000e+00  2.1341686566763270e-04 5.2000000000000006e-04 0.0000000000000000e+00  2.1031188075382895e-04 5.2000000000000006e-04 0.0000000000000000e+00  2.0714337416830010e-04 5.2000000000000006e-04 0.0000000000000000e+00  2.0396067417869862e-04 5.2000000000000006e-04 0.0000000000000000e+00  2.0073186893960777e-04 5.2000000000000006e-04 0.0000000000000000e+00  1.9748417337848059e-04 5.2000000000000006e-04 0.0000000000000000e+00  1.9419913087365172e-04 5.2000000000000006e-04 0.0000000000000000e+00  1.9090640069922371e-04 5.2000000000000006e-04 0.0000000000000000e+00  1.8758243034072865e-04 5.2000000000000006e-04 0.0000000000000000e+00  1.8424165064930464e-04 5.2000000000000006e-04 0.0000000000000000e+00  1.8090035592933183e-04 5.2000000000000006e-04 0.0000000000000000e+00  1.7752276483478762e-04 5.2000000000000006e-04 0.0000000000000000e+00  1.7414883408542012e-04 5.2000000000000006e-04 0.0000000000000000e+00  1.7077215304696759e-04 5.2000000000000006e-04 0.0000000000000000e+00  1.6739534228197366e-04 5.2000000000000006e-04 0.0000000000000000e+00  1.6399533349448458e-04 5.2000000000000006e-04 0.0000000000000000e+00  1.6060747273396802e-04 5.2000000000000006e-04 0.0000000000000000e+00  1.5722969144129679e-04 5.2000000000000006e-04 0.0000000000000000e+00  1.5384007867059652e-04 5.2000000000000006e-04 0.0000000000000000e+00  1.5046304550141184e-04 5.2000000000000006e-04 0.0000000000000000e+00  1.4709561232069830e-04 5.2000000000000006e-04 0.0000000000000000e+00  1.4374315990352575e-04 5.2000000000000006e-04 0.0000000000000000e+00  1.4040751750766544e-04 5.2000000000000006e-04 0.0000000000000000e+00  1.3706386906329188e-04 5.2000000000000006e-04 0.0000000000000000e+00  1.3374175204801541e-04 5.2000000000000006e-04 0.0000000000000000e+00  1.3043934971275473e-04 5.2000000000000006e-04 0.0000000000000000e+00  1.2714916767457066e-04 5.2000000000000006e-04 0.0000000000000000e+00  1.2387586766478631e-04 5.2000000000000006e-04 0.0000000000000000e+00  1.2062127994785370e-04 5.2000000000000006e-04 0.0000000000000000e+00  1.1738013858462981e-04 5.2000000000000006e-04 0.0000000000000000e+00  1.1415735773370367e-04 5.2000000000000006e-04 0.0000000000000000e+00  1.1095298816611232e-04 5.2000000000000006e-04 0.0000000000000000e+00  1.0776983979094042e-04 5.2000000000000006e-04 0.0000000000000000e+00  1.0459119057861863e-04 5.2000000000000006e-04 0.0000000000000000e+00  1.0143529883273715e-04 5.2000000000000006e-04 0.0000000000000000e+00  9.8292804275891858e-05 5.2000000000000006e-04 0.0000000000000000e+00  9.5168299597535563e-05 5.2000000000000006e-04 0.0000000000000000e+00  9.2051491678366658e-05 5.2000000000000006e-04 0.0000000000000000e+00  8.8949635905279651e-05 5.2000000000000006e-04 0.0000000000000000e+00  8.5860889396557427e-05 5.2000000000000006e-04 0.0000000000000000e+00  8.2781534245625406e-05 5.2000000000000006e-04 0.0000000000000000e+00  7.9710029557229691e-05 5.2000000000000006e-04 0.0000000000000000e+00  7.6645259170927309e-05 5.2000000000000006e-04 0.0000000000000000e+00  7.3584969639115750e-05 5.2000000000000006e-04 0.0000000000000000e+00  7.0528891068495330e-05 5.2000000000000006e-04 0.0000000000000000e+00  6.7475607292986759e-05 5.2000000000000006e-04 0.0000000000000000e+00  6.4422138245242349e-05 5.2000000000000006e-04 0.0000000000000000e+00  6.1367653794049956e-05 5.2000000000000006e-04 0.0000000000000000e+00  5.8312125293019863e-05 5.2000000000000006e-04 0.0000000000000000e+00  5.5251914699846692e-05 5.2000000000000006e-04 0.0000000000000000e+00  5.2185945581145091e-05 5.2000000000000006e-04 0.0000000000000000e+00  4.9115363301934292e-05 5.2000000000000006e-04 0.0000000000000000e+00  4.6035266952982427e-05 5.2000000000000006e-04 0.0000000000000000e+00  4.2953924391248680e-05 5.2000000000000006e-04 0.0000000000000000e+00  3.9865779059862335e-05 5.2000000000000006e-04 0.0000000000000000e+00  3.6772717248346409e-05 5.2000000000000006e-04 0.0000000000000000e+00  3.3675660887374251e-05 5.2000000000000006e-04 0.0000000000000000e+00  3.0581159813082612e-05 5.2000000000000006e-04 0.0000000000000000e+00  2.7487684627047982e-05 5.2000000000000006e-04 0.0000000000000000e+00  2.4415485998596282e-05 5.2000000000000006e-04 0.0000000000000000e+00  2.1356764095321744e-05 5.2000000000000006e-04 0.0000000000000000e+00  1.8322464335462023e-05 5.2000000000000006e-04 0.0000000000000000e+00  1.5317371950834186e-05 5.2000000000000006e-04 0.0000000000000000e+00  1.2354520350751078e-05 5.2000000000000006e-04 0.0000000000000000e+00  9.4592772968312019e-06 5.2000000000000006e-04 0.0000000000000000e+00  6.6365609028349076e-06 5.2000000000000006e-04 0.0000000000000000e+00  3.9195331596257177e-06 5.2000000000000006e-04 0.0000000000000000e+00  1.2858450263978076e-06 5.2000000000000006e-04 0.0000000000000000e+00  -1.2572126879701737e-06 5.2000000000000006e-04 0.0000000000000000e+00  -3.6538610874431844e-06 5.2000000000000006e-04 0.0000000000000000e+00  -5.8781239365760215e-06 5.2000000000000006e-04 0.0000000000000000e+00  -7.9473147283114110e-06 5.2000000000000006e-04 0.0000000000000000e+00  -9.8780657448454072e-06 5.2000000000000006e-04 0.0000000000000000e+00  -1.1588765997018414e-05 5.2000000000000006e-04 0.0000000000000000e+00  -1.3140719590982300e-05 5.2000000000000006e-04 0.0000000000000000e+00  -1.4494412304591316e-05 5.2000000000000006e-04 0.0000000000000000e+00  -1.5635665328538233e-05 5.2000000000000006e-04 0.0000000000000000e+00  -1.6593737771228629e-05 5.2000000000000006e-04 0.0000000000000000e+00  -1.7376872280375671e-05 5.2000000000000006e-04 0.0000000000000000e+00  -1.7974145375934121e-05 5.2000000000000006e-04 0.0000000000000000e+00  -1.8392364067066441e-05 5.2000000000000006e-04 0.0000000000000000e+00  -1.8640349742969731e-05 5.2000000000000006e-04 0.0000000000000000e+00  -1.8734104874844527e-05 5.2000000000000006e-04 0.0000000000000000e+00  -1.8706160600364313e-05 5.2000000000000006e-04 0.0000000000000000e+00  -1.8562259258432281e-05 5.2000000000000006e-04 0.0000000000000000e+00  -1.8293176281775597e-05 5.2000000000000006e-04 0.0000000000000000e+00  -1.7919095444946928e-05 5.2000000000000006e-04 0.0000000000000000e+00  -1.7479798235584497e-05 5.2000000000000006e-04 0.0000000000000000e+00  -1.6973051075151231e-05 5.2000000000000006e-04 0.0000000000000000e+00  -1.6410828463717578e-05 5.2000000000000006e-04 0.0000000000000000e+00  -1.5788052951000466e-05 5.2000000000000006e-04 0.0000000000000000e+00  -1.5137771996073255e-05 5.2000000000000006e-04 0.0000000000000000e+00  -1.4462330997112871e-05 5.2000000000000006e-04 0.0000000000000000e+00  -1.3774142789679232e-05 5.2000000000000006e-04 0.0000000000000000e+00  -1.3066628115373924e-05 5.2000000000000006e-04 0.0000000000000000e+00  -1.2362848659988551e-05 5.2000000000000006e-04 0.0000000000000000e+00  -1.1664187443068220e-05 5.2000000000000006e-04 0.0000000000000000e+00  -1.0972792707575145e-05 5.2000000000000006e-04 0.0000000000000000e+00  -1.0294332336654039e-05 5.2000000000000006e-04 0.0000000000000000e+00  -9.6343388413126314e-06 5.2000000000000006e-04 0.0000000000000000e+00  -8.9966369023135917e-06 5.2000000000000006e-04 0.0000000000000000e+00  -8.3745852574735876e-06 5.2000000000000006e-04 0.0000000000000000e+00  -7.7804101932254320e-06 5.2000000000000006e-04 0.0000000000000000e+00  -7.2131716213809049e-06 5.2000000000000006e-04 0.0000000000000000e+00  -6.6753200449186146e-06 5.2000000000000006e-04 0.0000000000000000e+00  -6.1657605867855082e-06 5.2000000000000006e-04 0.0000000000000000e+00  -5.6837674506508914e-06 5.2000000000000006e-04 0.0000000000000000e+00  -5.2292812625082190e-06 5.2000000000000006e-04 0.0000000000000000e+00  -4.8046772595276953e-06 5.2000000000000006e-04 0.0000000000000000e+00  -4.4073124788641192e-06 5.2000000000000006e-04 0.0000000000000000e+00  -4.0360711734637325e-06 5.2000000000000006e-04 0.0000000000000000e+00  -3.6875306629178037e-06 5.2000000000000006e-04 0.0000000000000000e+00  -3.3636799435046362e-06 5.2000000000000006e-04 0.0000000000000000e+00  -3.0590269396222091e-06 5.2000000000000006e-04 0.0000000000000000e+00  -2.7752286266709365e-06 5.2000000000000006e-04 0.0000000000000000e+00  -2.5068688303884162e-06 5.2000000000000006e-04 0.0000000000000000e+00  -2.2539837036444784e-06 5.2000000000000006e-04 0.0000000000000000e+00  -2.0132223677359979e-06 5.2000000000000006e-04 0.0000000000000000e+00  -1.7820535966280009e-06 5.2000000000000006e-04 0.0000000000000000e+00  -1.5583932648015694e-06 5.2000000000000006e-04 0.0000000000000000e+00  -1.3395560272245049e-06 5.2000000000000006e-04 0.0000000000000000e+00  -1.1224034891429458e-06 5.2000000000000006e-04 0.0000000000000000e+00  -9.0489738691195141e-07 5.2000000000000006e-04 0.0000000000000000e+00  -6.8505673765155256e-07 5.2000000000000006e-04 0.0000000000000000e+00  -4.6087507577503944e-07 5.2000000000000006e-04 0.0000000000000000e+00  -2.2774934894247805e-07 5.2000000000000006e-04 0.0000000000000000e+00  1.3440497674828149e-08 5.2000000000000006e-04 0.0000000000000000e+00  2.6536789325760800e-07 5.2000000000000006e-04 0.0000000000000000e+00  5.3196050765727167e-07 5.2000000000000006e-04 0.0000000000000000e+00  8.1336534557323292e-07 5.2000000000000006e-04 0.0000000000000000e+00  1.1118576291052163e-06 5.2000000000000006e-04 0.0000000000000000e+00  1.4299077130738560e-06 5.2000000000000006e-04 0.0000000000000000e+00  1.7661897559229300e-06 5.2000000000000006e-04 0.0000000000000000e+00  2.1223276503210095e-06 5.2000000000000006e-04 0.0000000000000000e+00  2.4992156864189680e-06 5.2000000000000006e-04 0.0000000000000000e+00  2.8987373798249237e-06 5.2000000000000006e-04 0.0000000000000000e+00  3.3203272086091148e-06 5.2000000000000006e-04 0.0000000000000000e+00  3.7647303531517295e-06 5.2000000000000006e-04 0.0000000000000000e+00  4.2325713393165941e-06 5.2000000000000006e-04 0.0000000000000000e+00  4.7228513686281324e-06 5.2000000000000006e-04 0.0000000000000000e+00  5.2378562423261176e-06 5.2000000000000006e-04 0.0000000000000000e+00  5.7759703039212294e-06 5.2000000000000006e-04 0.0000000000000000e+00  6.3342925001418678e-06 5.2000000000000006e-04 0.0000000000000000e+00  6.9168534855854585e-06 5.2000000000000006e-04 0.0000000000000000e+00  7.5212641228695627e-06 5.2000000000000006e-04 0.0000000000000000e+00  8.1468841672725521e-06 5.2000000000000006e-04 0.0000000000000000e+00  8.7924135253504689e-06 5.2000000000000006e-04 0.0000000000000000e+00  9.4545458414429419e-06 5.2000000000000006e-04 0.0000000000000000e+00  1.0141494710772359e-05 5.2000000000000006e-04 0.0000000000000000e+00  1.0830941918613224e-05 5.2000000000000006e-04 0.0000000000000000e+00  1.1533161658786102e-05 5.2000000000000006e-04 0.0000000000000000e+00  1.2243312639770209e-05 5.2000000000000006e-04 0.0000000000000000e+00  1.2958290636354605e-05 5.2000000000000006e-04 0.0000000000000000e+00  1.3661149447467954e-05 5.2000000000000006e-04 0.0000000000000000e+00  1.4356651220564273e-05 5.2000000000000006e-04 0.0000000000000000e+00  1.5032611067748434e-05 5.2000000000000006e-04 0.0000000000000000e+00  1.5683026143505894e-05 5.2000000000000006e-04 0.0000000000000000e+00  1.6301904564628695e-05 5.2000000000000006e-04 0.0000000000000000e+00  1.6859780503004440e-05 5.2000000000000006e-04 0.0000000000000000e+00  1.7359001451098733e-05 5.2000000000000006e-04 0.0000000000000000e+00  1.7775346805701339e-05 5.2000000000000006e-04 0.0000000000000000e+00  1.8134263111097338e-05 5.2000000000000006e-04 0.0000000000000000e+00  1.8382190024076977e-05 5.2000000000000006e-04 0.0000000000000000e+00  1.8510922443696291e-05 5.2000000000000006e-04 0.0000000000000000e+00  1.8530443064291873e-05 5.2000000000000006e-04 0.0000000000000000e+00  1.8390266833607979e-05 5.2000000000000006e-04 0.0000000000000000e+00  1.8142663714099106e-05 5.2000000000000006e-04 0.0000000000000000e+00  1.7725444686446127e-05 5.2000000000000006e-04 0.0000000000000000e+00  1.7107213788551506e-05 5.2000000000000006e-04 0.0000000000000000e+00  1.6296369794596777e-05 5.2000000000000006e-04 0.0000000000000000e+00  1.5316413133525810e-05 5.2000000000000006e-04 0.0000000000000000e+00  1.4133697894102306e-05 5.2000000000000006e-04 0.0000000000000000e+00  1.2750302806069993e-05 5.2000000000000006e-04 0.0000000000000000e+00  1.1185696006226091e-05 5.2000000000000006e-04 0.0000000000000000e+00  9.4219361289602433e-06 5.2000000000000006e-04 0.0000000000000000e+00  7.5440084278888623e-06 5.2000000000000006e-04 0.0000000000000000e+00  5.4388515995224897e-06 5.2000000000000006e-04 0.0000000000000000e+00  3.1843573503117823e-06 5.2000000000000006e-04 0.0000000000000000e+00  7.8942903511802005e-07 5.2000000000000006e-04 0.0000000000000000e+00  -1.7401061420431118e-06 5.2000000000000006e-04 0.0000000000000000e+00  -4.3700806785867510e-06 5.2000000000000006e-04 0.0000000000000000e+00  -7.1184154918400711e-06 5.2000000000000006e-04 0.0000000000000000e+00  -9.9344685236545995e-06 5.2000000000000006e-04 0.0000000000000000e+00  -1.2836455597668333e-05 5.2000000000000006e-04 0.0000000000000000e+00  -1.5787625992938322e-05 5.2000000000000006e-04 0.0000000000000000e+00  -1.8781231915716390e-05 5.2000000000000006e-04 0.0000000000000000e+00  -2.1806920314430662e-05 5.2000000000000006e-04 0.0000000000000000e+00  -2.4865951135045514e-05 5.2000000000000006e-04 0.0000000000000000e+00  -2.7934959616390867e-05 5.2000000000000006e-04 0.0000000000000000e+00  -3.1017474052245556e-05 5.2000000000000006e-04 0.0000000000000000e+00  -3.4103251205065391e-05 5.2000000000000006e-04 0.0000000000000000e+00  -3.7189986168219506e-05 5.2000000000000006e-04 0.0000000000000000e+00  -4.0274715586263375e-05 5.2000000000000006e-04 0.0000000000000000e+00  -4.3355181787943051e-05 5.2000000000000006e-04 0.0000000000000000e+00  -4.6430144809751180e-05 5.2000000000000006e-04 0.0000000000000000e+00  -4.9498251715476302e-05 5.2000000000000006e-04 0.0000000000000000e+00  -5.2561666041315993e-05 5.2000000000000006e-04 0.0000000000000000e+00  -5.5619325439875248e-05 5.2000000000000006e-04 0.0000000000000000e+00  -5.8672446965639322e-05 5.2000000000000006e-04 0.0000000000000000e+00  -6.1721186123324422e-05 5.2000000000000006e-04 0.0000000000000000e+00  -6.4766702495402340e-05 5.2000000000000006e-04 0.0000000000000000e+00  -6.7812454090684007e-05 5.2000000000000006e-04 0.0000000000000000e+00  -7.0858651364952350e-05 5.2000000000000006e-04 0.0000000000000000e+00  -7.3908144009458978e-05 5.2000000000000006e-04 0.0000000000000000e+00  -7.6961637569492437e-05 5.2000000000000006e-04 0.0000000000000000e+00  -8.0019400272158999e-05 5.2000000000000006e-04 0.0000000000000000e+00  -8.3085267808731173e-05 5.2000000000000006e-04 0.0000000000000000e+00  -8.6160705268885449e-05 5.2000000000000006e-04 0.0000000000000000e+00  -8.9247759069738890e-05 5.2000000000000006e-04 0.0000000000000000e+00  -9.2345930471862954e-05 5.2000000000000006e-04 0.0000000000000000e+00  -9.5450893156277903e-05 5.2000000000000006e-04 0.0000000000000000e+00  -9.8573115026203995e-05 5.2000000000000006e-04 0.0000000000000000e+00  -1.0171104176121198e-04 5.2000000000000006e-04 0.0000000000000000e+00  -1.0486791369174154e-04 5.2000000000000006e-04 0.0000000000000000e+00  -1.0803067810863093e-04 5.2000000000000006e-04 0.0000000000000000e+00  -1.1121597299907377e-04 5.2000000000000006e-04 0.0000000000000000e+00  -1.1442217240605975e-04 5.2000000000000006e-04 0.0000000000000000e+00  -1.1763749434812377e-04 5.2000000000000006e-04 0.0000000000000000e+00  -1.2087372936969094e-04 5.2000000000000006e-04 0.0000000000000000e+00  -1.2412805900340512e-04 5.2000000000000006e-04 0.0000000000000000e+00  -1.2740132203965069e-04 5.2000000000000006e-04 0.0000000000000000e+00  -1.3068886647922776e-04 5.2000000000000006e-04 0.0000000000000000e+00  -1.3398865967330405e-04 5.2000000000000006e-04 0.0000000000000000e+00  -1.3730446709450358e-04 5.2000000000000006e-04 0.0000000000000000e+00  -1.4063759852266761e-04 5.2000000000000006e-04 0.0000000000000000e+00  -1.4398137845100808e-04 5.2000000000000006e-04 0.0000000000000000e+00  -1.4733556387682933e-04 5.2000000000000006e-04 0.0000000000000000e+00  -1.5070012989852822e-04 5.2000000000000006e-04 0.0000000000000000e+00  -1.5407552668766686e-04 5.2000000000000006e-04 0.0000000000000000e+00  -1.5745302745194572e-04 5.2000000000000006e-04 0.0000000000000000e+00  -1.6084000850101897e-04 5.2000000000000006e-04 0.0000000000000000e+00  -1.6422253328289189e-04 5.2000000000000006e-04 0.0000000000000000e+00  -1.6761122561481063e-04 5.2000000000000006e-04 0.0000000000000000e+00  -1.7099906171462177e-04 5.2000000000000006e-04 0.0000000000000000e+00  -1.7437705166820219e-04 5.2000000000000006e-04 0.0000000000000000e+00  -1.7774993580532466e-04 5.2000000000000006e-04 0.0000000000000000e+00  -1.8111489603105910e-04 5.2000000000000006e-04 0.0000000000000000e+00  -1.8446663085803467e-04 5.2000000000000006e-04 0.0000000000000000e+00  -1.8780026869541036e-04 5.2000000000000006e-04 0.0000000000000000e+00  -1.9112657609546494e-04 5.2000000000000006e-04 0.0000000000000000e+00  -1.9442702308464493e-04 5.2000000000000006e-04 0.0000000000000000e+00  -1.9770345061715058e-04 5.2000000000000006e-04 0.0000000000000000e+00  -2.0095380710635644e-04 5.2000000000000006e-04 0.0000000000000000e+00  -2.0417146007685127e-04 5.2000000000000006e-04 0.0000000000000000e+00  -2.0736121325133216e-04 5.2000000000000006e-04 0.0000000000000000e+00  -2.1052282315648852e-04 5.2000000000000006e-04 0.0000000000000000e+00  -2.1363203907268192e-04 5.2000000000000006e-04 0.0000000000000000e+00  -2.1671733384005408e-04 5.2000000000000006e-04 0.0000000000000000e+00  -2.1971098122997352e-04 5.1092188938041318e-04 0.0000000000000000e+00  -2.1951296538909169e-04 5.0184129303295841e-04 0.0000000000000000e+00  -2.1923364011117424e-04 4.9275795760666619e-04 0.0000000000000000e+00  -2.1880171314063419e-04 4.8367137755724596e-04 0.0000000000000000e+00  -2.1826147384948857e-04 4.7459613542834376e-04 0.0000000000000000e+00  -2.1757419932419395e-04 4.6549316666787903e-04 0.0000000000000000e+00  -2.1677986517356653e-04 4.5640731862272937e-04 0.0000000000000000e+00  -2.1586552640990534e-04 4.4729871385020318e-04 0.0000000000000000e+00  -2.1481338849762671e-04 4.3818686967109487e-04 0.0000000000000000e+00  -2.1363166668827139e-04 4.2908404703277214e-04 0.0000000000000000e+00  -2.1232419271606195e-04 4.1995067272797038e-04 0.0000000000000000e+00  -2.1088252058061130e-04 4.1081610090013275e-04 0.0000000000000000e+00  -2.0931349324615809e-04 4.0165900613310147e-04 0.0000000000000000e+00  -2.0759971934363432e-04 3.9251467591238065e-04 0.0000000000000000e+00  -2.0575749017027022e-04 3.8332588880209465e-04 0.0000000000000000e+00  -2.0376892050914553e-04 3.7411454185221407e-04 0.0000000000000000e+00  -2.0163427682915068e-04 3.6490822676360106e-04 0.0000000000000000e+00  -1.9935675882862939e-04 3.5565748424431419e-04 0.0000000000000000e+00  -1.9692262484288456e-04 3.4640744719115934e-04 0.0000000000000000e+00  -1.9433617331809610e-04 3.3712058805124973e-04 0.0000000000000000e+00  -1.9160048229365859e-04 3.2777754706623928e-04 0.0000000000000000e+00  -1.8869126162619562e-04 3.1844399759339061e-04 0.0000000000000000e+00  -1.8562399727343134e-04 3.0904058738168242e-04 0.0000000000000000e+00  -1.8237091241144030e-04 2.9961969278206754e-04 0.0000000000000000e+00  -1.7896090098345324e-04 2.9013250786506014e-04 0.0000000000000000e+00  -1.7534850504559432e-04 2.8063072589184845e-04 0.0000000000000000e+00  -1.7157156865262941e-04 2.7102717784719305e-04 0.0000000000000000e+00