<?xml version="1.0"?>
<VTKFile type="UnstructuredGrid"  version="0.1"  >
<UnstructuredGrid>
<Piece  NumberOfPoints="16512" NumberOfCells="32424">
<Points>
<DataArray  type="Float64"  NumberOfComponents="3"  format="ascii">-25 4.9 0  25 4.9 0  25 -4.9 0  -25 -4.9 0  -10 0 0  10 0 0  -24.80000000000034 4.9 0  -24.60000000000068 4.9 0  -24.40000000000101 4.9 0  -24.20000000000135 4.9 0  -24.00000000000169 4.9 0  -23.80000000000203 4.9 0  -23.60000000000237 4.9 0  -23.40000000000271 4.9 0  -23.20000000000304 4.9 0  -23.00000000000338 4.9 0  -22.80000000000372 4.9 0  -22.60000000000406 4.9 0  -22.40000000000439 4.9 0  -22.20000000000473 4.9 0  -22.00000000000507 4.9 0  -21.80000000000541 4.9 0  -21.60000000000575 4.9 0  -21.40000000000608 4.9 0  -21.20000000000642 4.9 0  -21.00000000000676 4.9 0  -20.8000000000071 4.9 0  -20.60000000000744 4.9 0  -20.40000000000777 4.9 0  -20.20000000000811 4.9 0  -20.00000000000845 4.9 0  -19.80000000000879 4.9 0  -19.60000000000912 4.9 0  -19.40000000000946 4.9 0  -19.2000000000098 4.9 0  -19.00000000001039 4.9 0  -18.80000000001108 4.9 0  -18.60000000001231 4.9 0  -18.40000000001371 4.9 0  -18.2000000000154 4.9 0  -18.00000000001716 4.9 0  -17.80000000001892 4.9 0  -17.60000000002067 4.9 0  -17.40000000002243 4.9 0  -17.20000000002419 4.9 0  -17.00000000002595 4.9 0  -16.80000000002771 4.9 0  -16.60000000002947 4.9 0  -16.40000000003123 4.9 0  -16.20000000003299 4.9 0  -16.00000000003472 4.9 0  -15.80000000003612 4.9 0  -15.60000000003748 4.9 0  -15.40000000003853 4.9 0  -15.20000000003958 4.9 0  -15.00000000004063 4.9 0  -14.80000000004168 4.9 0  -14.60000000004273 4.9 0  -14.40000000004377 4.9 0  -14.20000000004482 4.9 0  -14.00000000004587 4.9 0  -13.80000000004692 4.9 0  -13.60000000004797 4.9 0  -13.40000000004902 4.9 0  -13.20000000005007 4.9 0  -13.00000000005111 4.9 0  -12.80000000005216 4.9 0  -12.60000000005321 4.9 0  -12.40000000005426 4.9 0  -12.20000000005531 4.9 0  -12.00000000005636 4.9 0  -11.80000000005741 4.9 0  -11.60000000005846 4.9 0  -11.4000000000595 4.9 0  -11.20000000006055 4.9 0  -11.0000000000616 4.9 0  -10.80000000006265 4.9 0  -10.6000000000637 4.9 0  -10.40000000006475 4.9 0  -10.2000000000658 4.9 0  -10.00000000006684 4.9 0  -9.800000000067891 4.9 0  -9.60000000006894 4.9 0  -9.400000000069989 4.9 0  -9.200000000070727 4.9 0  -9.00000000007142 4.9 0  -8.800000000071787 4.9 0  -8.600000000072125 4.9 0  -8.400000000072467 4.9 0  -8.200000000072805 4.9 0  -8.000000000073143 4.9 0  -7.800000000073481 4.9 0  -7.60000000007382 4.9 0  -7.400000000074154 4.9 0  -7.200000000074493 4.9 0  -7.000000000074831 4.9 0  -6.800000000075173 4.9 0  -6.600000000075511 4.9 0  -6.400000000075849 4.9 0  -6.200000000076187 4.9 0  -6.000000000076525 4.9 0  -5.800000000076867 4.9 0  -5.600000000077205 4.9 0  -5.400000000077544 4.9 0  -5.200000000077882 4.9 0  -5.00000000007822 4.9 0  -4.800000000078558 4.9 0  -4.600000000078897 4.9 0  -4.400000000079235 4.9 0  -4.200000000079573 4.9 0  -4.000000000079908 4.9 0  -3.800000000080246 4.9 0  -3.600000000080588 4.9 0  -3.400000000080926 4.9 0  -3.200000000081264 4.9 0  -3.000000000081606 4.9 0  -2.800000000081944 4.9 0  -2.600000000082282 4.9 0  -2.40000000008262 4.9 0  -2.200000000082959 4.9 0  -2.000000000083297 4.9 0  -1.800000000083635 4.9 0  -1.600000000083973 4.9 0  -1.400000000084312 4.9 0  -1.20000000008465 4.9 0  -1.000000000084988 4.9 0  -0.8000000000853262 4.9 0  -0.6000000000856645 4.9 0  -0.4000000000860027 4.9 0  -0.2000000000863409 4.9 0  -8.667910833537462e-11 4.9 0  0.1999999999129827 4.9 0  0.3999999999126409 4.9 0  0.5999999999123027 4.9 0  0.7999999999119716 4.9 0  0.9999999999116262 4.9 0  1.199999999911295 4.9 0  1.39999999991095 4.9 0  1.599999999910619 4.9 0  1.799999999910273 4.9 0  1.999999999909939 4.9 0  2.199999999909597 4.9 0  2.399999999909262 4.9 0  2.599999999908921 4.9 0  2.799999999908582 4.9 0  2.999999999908244 4.9 0  3.199999999907906 4.9 0  3.399999999907564 4.9 0  3.599999999907226 4.9 0  3.799999999906888 4.9 0  3.999999999906549 4.9 0  4.199999999906218 4.9 0  4.399999999905873 4.9 0  4.599999999905542 4.9 0  4.799999999905197 4.9 0  4.999999999904865 4.9 0  5.19999999990452 4.9 0  5.399999999904182 4.9 0  5.599999999903844 4.9 0  5.799999999903505 4.9 0  5.999999999903167 4.9 0  6.199999999902829 4.9 0  6.399999999902491 4.9 0  6.599999999902153 4.9 0  6.799999999902379 4.9 0  6.999999999902752 4.9 0  7.199999999903724 4.9 0  7.399999999904807 4.9 0  7.59999999990589 4.9 0  7.799999999906966 4.9 0  7.999999999908056 4.9 0  8.199999999909132 4.9 0  8.399999999910214 4.9 0  8.59999999991129 4.9 0  8.79999999991238 4.9 0  8.999999999913456 4.9 0  9.199999999914539 4.9 0  9.399999999915622 4.9 0  9.599999999916704 4.9 0  9.79999999991778 4.9 0  9.99999999991887 4.9 0  10.19999999991995 4.9 0  10.39999999992103 4.9 0  10.59999999992212 4.9 0  10.79999999992319 4.9 0  10.99999999992428 4.9 0  11.19999999992536 4.9 0  11.39999999992644 4.9 0  11.59999999992752 4.9 0  11.7999999999286 4.9 0  11.99999999992968 4.9 0  12.19999999993077 4.9 0  12.39999999993184 4.9 0  12.59999999993293 4.9 0  12.79999999993401 4.9 0  12.99999999993509 4.9 0  13.19999999993617 4.9 0  13.39999999993726 4.9 0  13.59999999993834 4.9 0  13.79999999993942 4.9 0  13.99999999994051 4.9 0  14.19999999994158 4.9 0  14.39999999994266 4.9 0  14.59999999994375 4.9 0  14.79999999994483 4.9 0  14.99999999994591 4.9 0  15.199999999947 4.9 0  15.39999999994807 4.9 0  15.59999999994915 4.9 0  15.79999999995024 4.9 0  15.99999999995132 4.9 0  16.1999999999524 4.9 0  16.39999999995349 4.9 0  16.59999999995456 4.9 0  16.79999999995565 4.9 0  16.99999999995674 4.9 0  17.19999999995781 4.9 0  17.39999999995889 4.9 0  17.59999999995997 4.9 0  17.79999999996106 4.9 0  17.99999999996214 4.9 0  18.19999999996322 4.9 0  18.3999999999643 4.9 0  18.59999999996538 4.9 0  18.79999999996646 4.9 0  18.99999999996755 4.9 0  19.19999999996863 4.9 0  19.39999999996971 4.9 0  19.59999999997079 4.9 0  19.79999999997187 4.9 0  19.99999999997296 4.9 0  20.19999999997404 4.9 0  20.39999999997512 4.9 0  20.5999999999762 4.9 0  20.79999999997728 4.9 0  20.99999999997836 4.9 0  21.19999999997945 4.9 0  21.39999999998052 4.9 0  21.59999999998161 4.9 0  21.79999999998269 4.9 0  21.99999999998377 4.9 0  22.19999999998485 4.9 0  22.39999999998594 4.9 0  22.59999999998701 4.9 0  22.7999999999881 4.9 0  22.99999999998919 4.9 0  23.19999999999026 4.9 0  23.39999999999135 4.9 0  23.59999999999243 4.9 0  23.79999999999351 4.9 0  23.99999999999459 4.9 0  24.19999999999568 4.9 0  24.39999999999675 4.9 0  24.59999999999783 4.9 0  24.79999999999892 4.9 0  25 4.700000000000415 0  25 4.500000000000868 0  25 4.300000000001562 0  25 4.100000000001831 0  25 3.900000000002072 0  25 3.700000000002459 0  25 3.500000000003038 0  25 3.300000000003653 0  25 3.100000000004294 0  25 2.900000000004838 0  25 2.700000000005293 0  25 2.500000000005957 0  25 2.300000000006508 0  25 2.100000000007153 0  25 1.900000000007722 0  25 1.700000000008417 0  25 1.500000000008938 0  25 1.30000000000963 0  25 1.100000000010154 0  25 0.9000000000108268 0  25 0.7000000000114559 0  25 0.5000000000119762 0  25 0.3000000000126564 0  25 0.1000000000131926 0  25 -0.09999999998679243 0  25 -0.2999999999874587 0  25 -0.4999999999878586 0  25 -0.6999999999884441 0  25 -0.899999999988804 0  25 -1.099999999989427 0  25 -1.299999999989749 0  25 -1.499999999990411 0  25 -1.69999999999073 0  25 -1.899999999991396 0  25 -2.099999999991715 0  25 -2.299999999992381 0  25 -2.499999999993047 0  25 -2.699999999993714 0  25 -2.899999999994227 0  25 -3.099999999994698 0  25 -3.299999999994673 0  25 -3.499999999995339 0  25 -3.699999999996004 0  25 -3.89999999999667 0  25 -4.099999999997335 0  25 -4.299999999998002 0  25 -4.499999999998668 0  25 -4.699999999999335 0  24.80000000000034 -4.9 0  24.60000000000068 -4.9 0  24.40000000000101 -4.9 0  24.20000000000135 -4.9 0  24.00000000000169 -4.9 0  23.80000000000203 -4.9 0  23.60000000000237 -4.9 0  23.40000000000271 -4.9 0  23.20000000000304 -4.9 0  23.00000000000338 -4.9 0  22.80000000000372 -4.9 0  22.60000000000406 -4.9 0  22.40000000000439 -4.9 0  22.20000000000473 -4.9 0  22.00000000000507 -4.9 0  21.80000000000541 -4.9 0  21.60000000000575 -4.9 0  21.40000000000608 -4.9 0  21.20000000000642 -4.9 0  21.00000000000676 -4.9 0  20.8000000000071 -4.9 0  20.60000000000744 -4.9 0  20.40000000000777 -4.9 0  20.20000000000811 -4.9 0  20.00000000000845 -4.9 0  19.80000000000879 -4.9 0  19.60000000000912 -4.9 0  19.40000000000946 -4.9 0  19.2000000000098 -4.9 0  19.00000000001039 -4.9 0  18.80000000001108 -4.9 0  18.60000000001231 -4.9 0  18.40000000001371 -4.9 0  18.2000000000154 -4.9 0  18.00000000001716 -4.9 0  17.80000000001892 -4.9 0  17.60000000002067 -4.9 0  17.40000000002243 -4.9 0  17.20000000002419 -4.9 0  17.00000000002595 -4.9 0  16.80000000002771 -4.9 0  16.60000000002947 -4.9 0  16.40000000003123 -4.9 0  16.20000000003299 -4.9 0  16.00000000003472 -4.9 0  15.80000000003612 -4.9 0  15.60000000003748 -4.9 0  15.40000000003853 -4.9 0  15.20000000003958 -4.9 0  15.00000000004063 -4.9 0  14.80000000004168 -4.9 0  14.60000000004273 -4.9 0  14.40000000004377 -4.9 0  14.20000000004482 -4.9 0  14.00000000004587 -4.9 0  13.80000000004692 -4.9 0  13.60000000004797 -4.9 0  13.40000000004902 -4.9 0  13.20000000005007 -4.9 0  13.00000000005111 -4.9 0  12.80000000005216 -4.9 0  12.60000000005321 -4.9 0  12.40000000005426 -4.9 0  12.20000000005531 -4.9 0  12.00000000005636 -4.9 0  11.80000000005741 -4.9 0  11.60000000005846 -4.9 0  11.4000000000595 -4.9 0  11.20000000006055 -4.9 0  11.0000000000616 -4.9 0  10.80000000006265 -4.9 0  10.6000000000637 -4.9 0  10.40000000006475 -4.9 0  10.2000000000658 -4.9 0  10.00000000006684 -4.9 0  9.800000000067891 -4.9 0  9.60000000006894 -4.9 0  9.400000000069989 -4.9 0  9.200000000070727 -4.9 0  9.00000000007142 -4.9 0  8.800000000071787 -4.9 0  8.600000000072125 -4.9 0  8.400000000072467 -4.9 0  8.200000000072805 -4.9 0  8.000000000073143 -4.9 
[...]
<PointData  Vectors="f_7"> 
<DataArray  type="Float64"  Name="f_7"  NumberOfComponents="3" format="ascii">2.1720061175037199e-05 5.0000000000000002e-05 0.0000000000000000e+00  -2.1739628612859811e-05 5.0000000000000002e-05 0.0000000000000000e+00  0.0000000000000000e+00 0.0000000000000000e+00 0.0000000000000000e+00  0.0000000000000000e+00 0.0000000000000000e+00 0.0000000000000000e+00  3.9599857331487610e-06 2.5004640864729014e-05 0.0000000000000000e+00  -3.8792222197462999e-06 2.4603028685778479e-05 0.0000000000000000e+00  2.1428014250682454e-05 5.0000000000000002e-05 0.0000000000000000e+00  2.1133766366688465e-05 5.0000000000000002e-05 0.0000000000000000e+00  2.0837665246302995e-05 5.0000000000000002e-05 0.0000000000000000e+00  2.0535191526819882e-05 5.0000000000000002e-05 0.0000000000000000e+00  2.0231355981368247e-05 5.0000000000000002e-05 0.0000000000000000e+00  1.9922936174089046e-05 5.0000000000000002e-05 0.0000000000000000e+00  1.9612710006829139e-05 5.0000000000000002e-05 0.0000000000000000e+00  1.9298833341477798e-05 5.0000000000000002e-05 0.0000000000000000e+00  1.8984282328829020e-05 5.0000000000000002e-05 0.0000000000000000e+00  1.8666721024028942e-05 5.0000000000000002e-05 0.0000000000000000e+00  1.8347606016060992e-05 5.0000000000000002e-05 0.0000000000000000e+00  1.8028568046086024e-05 5.0000000000000002e-05 0.0000000000000000e+00  1.7706040321972631e-05 5.0000000000000002e-05 0.0000000000000000e+00  1.7384031476600133e-05 5.0000000000000002e-05 0.0000000000000000e+00  1.7061895090528130e-05 5.0000000000000002e-05 0.0000000000000000e+00  1.6739915361918984e-05 5.0000000000000002e-05 0.0000000000000000e+00  1.6415783744104004e-05 5.0000000000000002e-05 0.0000000000000000e+00  1.6093069149970607e-05 5.0000000000000002e-05 0.0000000000000000e+00  1.5771523848998510e-05 5.0000000000000002e-05 0.0000000000000000e+00  1.5449001241433677e-05 5.0000000000000002e-05 0.0000000000000000e+00  1.5127954564027714e-05 5.0000000000000002e-05 0.0000000000000000e+00  1.4808075472022018e-05 5.0000000000000002e-05 0.0000000000000000e+00  1.4489924499375095e-05 5.0000000000000002e-05 0.0000000000000000e+00  1.4173675040569146e-05 5.0000000000000002e-05 0.0000000000000000e+00  1.3856832891561424e-05 5.0000000000000002e-05 0.0000000000000000e+00  1.3542423848365307e-05 5.0000000000000002e-05 0.0000000000000000e+00  1.3230242083323894e-05 5.0000000000000002e-05 0.0000000000000000e+00  1.2919545658283561e-05 5.0000000000000002e-05 0.0000000000000000e+00  1.2610812965071399e-05 5.0000000000000002e-05 0.0000000000000000e+00  1.2304256117959800e-05 5.0000000000000002e-05 0.0000000000000000e+00  1.1999353502006437e-05 5.0000000000000002e-05 0.0000000000000000e+00  1.1696618646833314e-05 5.0000000000000002e-05 0.0000000000000000e+00  1.1396037342116819e-05 5.0000000000000002e-05 0.0000000000000000e+00  1.1097964802747296e-05 5.0000000000000002e-05 0.0000000000000000e+00  1.0800643848162939e-05 5.0000000000000002e-05 0.0000000000000000e+00  1.0506040107886022e-05 5.0000000000000002e-05 0.0000000000000000e+00  1.0213184243900251e-05 5.0000000000000002e-05 0.0000000000000000e+00  9.9226030418227028e-06 5.0000000000000002e-05 0.0000000000000000e+00  9.6331794867998065e-06 5.0000000000000002e-05 0.0000000000000000e+00  9.3457534268497678e-06 5.0000000000000002e-05 0.0000000000000000e+00  9.0601629342268859e-06 5.0000000000000002e-05 0.0000000000000000e+00  8.7760509340233686e-06 5.0000000000000002e-05 0.0000000000000000e+00  8.4932902138418851e-06 5.0000000000000002e-05 0.0000000000000000e+00  8.2117816309284620e-06 5.0000000000000002e-05 0.0000000000000000e+00  7.9313352214410250e-06 5.0000000000000002e-05 0.0000000000000000e+00  7.6519729906397625e-06 5.0000000000000002e-05 0.0000000000000000e+00  7.3735346768945462e-06 5.0000000000000002e-05 0.0000000000000000e+00  7.0958380764512707e-06 5.0000000000000002e-05 0.0000000000000000e+00  6.8188291910416075e-06 5.0000000000000002e-05 0.0000000000000000e+00  6.5424109357973924e-06 5.0000000000000002e-05 0.0000000000000000e+00  6.2663536242499096e-06 5.0000000000000002e-05 0.0000000000000000e+00  5.9904764878476280e-06 5.0000000000000002e-05 0.0000000000000000e+00  5.7149850632063178e-06 5.0000000000000002e-05 0.0000000000000000e+00  5.4396123147571356e-06 5.0000000000000002e-05 0.0000000000000000e+00  5.1646073890950465e-06 5.0000000000000002e-05 0.0000000000000000e+00  4.8898534436569979e-06 5.0000000000000002e-05 0.0000000000000000e+00  4.6154053949393822e-06 5.0000000000000002e-05 0.0000000000000000e+00  4.3414263988950240e-06 5.0000000000000002e-05 0.0000000000000000e+00  4.0683593100086286e-06 5.0000000000000002e-05 0.0000000000000000e+00  3.7962130337353994e-06 5.0000000000000002e-05 0.0000000000000000e+00  3.5263786734144205e-06 5.0000000000000002e-05 0.0000000000000000e+00  3.2584232338884138e-06 5.0000000000000002e-05 0.0000000000000000e+00  2.9931964139964580e-06 5.0000000000000002e-05 0.0000000000000000e+00  2.7311105433586751e-06 5.0000000000000002e-05 0.0000000000000000e+00  2.4733499268637548e-06 5.0000000000000002e-05 0.0000000000000000e+00  2.2215877998596194e-06 5.0000000000000002e-05 0.0000000000000000e+00  1.9765085265286835e-06 5.0000000000000002e-05 0.0000000000000000e+00  1.7407339887791515e-06 5.0000000000000002e-05 0.0000000000000000e+00  1.5124565077578546e-06 5.0000000000000002e-05 0.0000000000000000e+00  1.2922066050435669e-06 5.0000000000000002e-05 0.0000000000000000e+00  1.0844389936880563e-06 5.0000000000000002e-05 0.0000000000000000e+00  8.9118247303966866e-07 5.0000000000000002e-05 0.0000000000000000e+00  7.1096888839991513e-07 5.0000000000000002e-05 0.0000000000000000e+00  5.4245889388617377e-07 5.0000000000000002e-05 0.0000000000000000e+00  3.9182408273761435e-07 5.0000000000000002e-05 0.0000000000000000e+00  2.5429812521683580e-07 5.0000000000000002e-05 0.0000000000000000e+00  1.3288074892648556e-07 5.0000000000000002e-05 0.0000000000000000e+00  2.8428164763891602e-08 5.0000000000000002e-05 0.0000000000000000e+00  -6.1485577343744710e-08 5.0000000000000002e-05 0.0000000000000000e+00  -1.3765597346364366e-07 5.0000000000000002e-05 0.0000000000000000e+00  -1.9943424829438970e-07 5.0000000000000002e-05 0.0000000000000000e+00  -2.4753403532992586e-07 5.0000000000000002e-05 0.0000000000000000e+00  -2.8283162332451908e-07 5.0000000000000002e-05 0.0000000000000000e+00  -3.0678389301240939e-07 5.0000000000000002e-05 0.0000000000000000e+00  -3.2189847850189151e-07 5.0000000000000002e-05 0.0000000000000000e+00  -3.2879455079060161e-07 5.0000000000000002e-05 0.0000000000000000e+00  -3.2703482688906782e-07 5.0000000000000002e-05 0.0000000000000000e+00  -3.1831227687341066e-07 5.0000000000000002e-05 0.0000000000000000e+00  -3.0546266346499796e-07 5.0000000000000002e-05 0.0000000000000000e+00  -2.8845305184758095e-07 5.0000000000000002e-05 0.0000000000000000e+00  -2.6829952521068717e-07 5.0000000000000002e-05 0.0000000000000000e+00  -2.4475796247005368e-07 5.0000000000000002e-05 0.0000000000000000e+00  -2.2010003052884451e-07 5.0000000000000002e-05 0.0000000000000000e+00  -1.9455180273360076e-07 5.0000000000000002e-05 0.0000000000000000e+00  -1.6894534203583363e-07 5.0000000000000002e-05 0.0000000000000000e+00  -1.4304153095008441e-07 5.0000000000000002e-05 0.0000000000000000e+00  -1.1807723719742419e-07 5.0000000000000002e-05 0.0000000000000000e+00  -9.4248518751949354e-08 5.0000000000000002e-05 0.0000000000000000e+00  -7.1742836352949652e-08 5.0000000000000002e-05 0.0000000000000000e+00  -5.0818537153357752e-08 5.0000000000000002e-05 0.0000000000000000e+00  -3.1744298144804132e-08 5.0000000000000002e-05 0.0000000000000000e+00  -1.4742279961023809e-08 5.0000000000000002e-05 0.0000000000000000e+00  6.2573979119232279e-10 5.0000000000000002e-05 0.0000000000000000e+00  1.3762266480050314e-08 5.0000000000000002e-05 0.0000000000000000e+00  2.4742442199591607e-08 5.0000000000000002e-05 0.0000000000000000e+00  3.3468056685946601e-08 5.0000000000000002e-05 0.0000000000000000e+00  4.0135397030891840e-08 5.0000000000000002e-05 0.0000000000000000e+00  4.4817471466600525e-08 5.0000000000000002e-05 0.0000000000000000e+00  4.7652359179777946e-08 5.0000000000000002e-05 0.0000000000000000e+00  4.8531662845318922e-08 5.0000000000000002e-05 0.0000000000000000e+00  4.7694947005219865e-08 5.0000000000000002e-05 0.0000000000000000e+00  4.5276114641500281e-08 5.0000000000000002e-05 0.0000000000000000e+00  4.1540433922791332e-08 5.0000000000000002e-05 0.0000000000000000e+00  3.6423465438265475e-08 5.0000000000000002e-05 0.0000000000000000e+00  3.0276747573574682e-08 5.0000000000000002e-05 0.0000000000000000e+00  2.3057563439701913e-08 5.0000000000000002e-05 0.0000000000000000e+00  1.5086887174140314e-08 5.0000000000000002e-05 0.0000000000000000e+00  6.3954756216578497e-09 5.0000000000000002e-05 0.0000000000000000e+00  -2.8260109292922039e-09 5.0000000000000002e-05 0.0000000000000000e+00  -1.2423578868824037e-08 5.0000000000000002e-05 0.0000000000000000e+00  -2.2286202729795246e-08 5.0000000000000002e-05 0.0000000000000000e+00  -3.2267629080422177e-08 5.0000000000000002e-05 0.0000000000000000e+00  -4.2172141198723198e-08 5.0000000000000002e-05 0.0000000000000000e+00  -5.1955905132623633e-08 5.0000000000000002e-05 0.0000000000000000e+00  -6.1491119382622530e-08 5.0000000000000002e-05 0.0000000000000000e+00  -7.0680422819186200e-08 5.0000000000000002e-05 0.0000000000000000e+00  -7.9270445078309222e-08 5.0000000000000002e-05 0.0000000000000000e+00  -8.7350226227556206e-08 5.0000000000000002e-05 0.0000000000000000e+00  -9.4778033403695576e-08 5.0000000000000002e-05 0.0000000000000000e+00  -1.0132968054364999e-07 5.0000000000000002e-05 0.0000000000000000e+00  -1.0702701829963903e-07 5.0000000000000002e-05 0.0000000000000000e+00  -1.1174941884905828e-07 5.0000000000000002e-05 0.0000000000000000e+00  -1.1536527249936145e-07 5.0000000000000002e-05 0.0000000000000000e+00  -1.1795641929902989e-07 5.0000000000000002e-05 0.0000000000000000e+00  -1.1942617418614509e-07 5.0000000000000002e-05 0.0000000000000000e+00  -1.1972645304491675e-07 5.0000000000000002e-05 0.0000000000000000e+00  -1.1874203577806655e-07 5.0000000000000002e-05 0.0000000000000000e+00  -1.1648885739128579e-07 5.0000000000000002e-05 0.0000000000000000e+00  -1.1290013940687073e-07 5.0000000000000002e-05 0.0000000000000000e+00  -1.0790680235805317e-07 5.0000000000000002e-05 0.0000000000000000e+00  -1.0152663401269279e-07 5.0000000000000002e-05 0.0000000000000000e+00  -9.3571697768956228e-08 5.0000000000000002e-05 0.0000000000000000e+00  -8.4101703007704243e-08 5.0000000000000002e-05 0.0000000000000000e+00  -7.3193134564318240e-08 5.0000000000000002e-05 0.0000000000000000e+00  -6.0557443740595181e-08 5.0000000000000002e-05 0.0000000000000000e+00  -4.6308696762636785e-08 5.0000000000000002e-05 0.0000000000000000e+00  -3.0301874540304895e-08 5.0000000000000002e-05 0.0000000000000000e+00  -1.2608518473558187e-08 5.0000000000000002e-05 0.0000000000000000e+00  6.6027412891707680e-09 5.0000000000000002e-05 0.0000000000000000e+00  2.8062253183315696e-08 5.0000000000000002e-05 0.0000000000000000e+00  5.0267373217425482e-08 5.0000000000000002e-05 0.0000000000000000e+00  7.4055253587963885e-08 5.0000000000000002e-05 0.0000000000000000e+00  9.9111400687325641e-08 5.0000000000000002e-05 0.0000000000000000e+00  1.2516790181344246e-07 5.0000000000000002e-05 0.0000000000000000e+00  1.5137752244685594e-07 5.0000000000000002e-05 0.0000000000000000e+00  1.7783901534474287e-07 5.0000000000000002e-05 0.0000000000000000e+00  2.0379241262556609e-07 5.0000000000000002e-05 0.0000000000000000e+00  2.2882718888839979e-07 5.0000000000000002e-05 0.0000000000000000e+00  2.5248425634985899e-07 5.0000000000000002e-05 0.0000000000000000e+00  2.7267801109474827e-07 5.0000000000000002e-05 0.0000000000000000e+00  2.8949055759793505e-07 5.0000000000000002e-05 0.0000000000000000e+00  3.0108951881963530e-07 5.0000000000000002e-05 0.0000000000000000e+00  3.0897694659206046e-07 5.0000000000000002e-05 0.0000000000000000e+00  3.0939876662237549e-07 5.0000000000000002e-05 0.0000000000000000e+00  3.0153317603934755e-07 5.0000000000000002e-05 0.0000000000000000e+00  2.8587794896712214e-07 5.0000000000000002e-05 0.0000000000000000e+00  2.5859956921985531e-07 5.0000000000000002e-05 0.0000000000000000e+00  2.2332379057403600e-07 5.0000000000000002e-05 0.0000000000000000e+00  1.7530793496138872e-07 5.0000000000000002e-05 0.0000000000000000e+00  1.1187854284283831e-07 5.0000000000000002e-05 0.0000000000000000e+00  3.3648282833008843e-08 5.0000000000000002e-05 0.0000000000000000e+00  -5.7978524950858778e-08 5.0000000000000002e-05 0.0000000000000000e+00  -1.6572748143647074e-07 5.0000000000000002e-05 0.0000000000000000e+00  -2.8959803692191301e-07 5.0000000000000002e-05 0.0000000000000000e+00  -4.2828597945991248e-07 5.0000000000000002e-05 0.0000000000000000e+00  -5.8313487410711574e-07 5.0000000000000002e-05 0.0000000000000000e+00  -7.4769068406227464e-07 5.0000000000000002e-05 0.0000000000000000e+00  -9.3076903583810211e-07 5.0000000000000002e-05 0.0000000000000000e+00  -1.1265063551161712e-06 5.0000000000000002e-05 0.0000000000000000e+00  -1.3341843100267560e-06 5.0000000000000002e-05 0.0000000000000000e+00  -1.5534158994912994e-06 5.0000000000000002e-05 0.0000000000000000e+00  -1.7815127452326833e-06 5.0000000000000002e-05 0.0000000000000000e+00  -2.0197588421548072e-06 5.0000000000000002e-05 0.0000000000000000e+00  -2.2642754636260557e-06 5.0000000000000002e-05 0.0000000000000000e+00  -2.5165105780448500e-06 5.0000000000000002e-05 0.0000000000000000e+00  -2.7734431240667972e-06 5.0000000000000002e-05 0.0000000000000000e+00  -3.0345596018478999e-06 5.0000000000000002e-05 0.0000000000000000e+00  -3.2990758787114825e-06 5.0000000000000002e-05 0.0000000000000000e+00  -3.5669550997843459e-06 5.0000000000000002e-05 0.0000000000000000e+00  -3.8364313535213233e-06 5.0000000000000002e-05 0.0000000000000000e+00  -4.1077465009957984e-06 5.0000000000000002e-05 0.0000000000000000e+00  -4.3800399155029652e-06 5.0000000000000002e-05 0.0000000000000000e+00  -4.6531525097312988e-06 5.0000000000000002e-05 0.0000000000000000e+00  -4.9268521949417814e-06 5.0000000000000002e-05 0.0000000000000000e+00  -5.2009080413661650e-06 5.0000000000000002e-05 0.0000000000000000e+00  -5.4752521420505833e-06 5.0000000000000002e-05 0.0000000000000000e+00  -5.7497865293102742e-06 5.0000000000000002e-05 0.0000000000000000e+00  -6.0245407186311185e-06 5.0000000000000002e-05 0.0000000000000000e+00  -6.2996371390930694e-06 5.0000000000000002e-05 0.0000000000000000e+00  -6.5751892529237823e-06 5.0000000000000002e-05 0.0000000000000000e+00  -6.8509037733088366e-06 5.0000000000000002e-05 0.0000000000000000e+00  -7.1271694308271594e-06 5.0000000000000002e-05 0.0000000000000000e+00  -7.4041508524115362e-06 5.0000000000000002e-05 0.0000000000000000e+00  -7.6818920000183805e-06 5.0000000000000002e-05 0.0000000000000000e+00  -7.9606542059140066e-06 5.0000000000000002e-05 0.0000000000000000e+00  -8.2404691718604036e-06 5.0000000000000002e-05 0.0000000000000000e+00  -8.5213597500120729e-06 5.0000000000000002e-05 0.0000000000000000e+00  -8.8036273730080485e-06 5.0000000000000002e-05 0.0000000000000000e+00  -9.0874203086505509e-06 5.0000000000000002e-05 0.0000000000000000e+00  -9.3729239964580236e-06 5.0000000000000002e-05 0.0000000000000000e+00  -9.6600402075159046e-06 5.0000000000000002e-05 0.0000000000000000e+00  -9.9482545285246813e-06 5.0000000000000002e-05 0.0000000000000000e+00  -1.0238703539912569e-05 5.0000000000000002e-05 0.0000000000000000e+00  -1.0531139517605291e-05 5.0000000000000002e-05 0.0000000000000000e+00  -1.0825903309942502e-05 5.0000000000000002e-05 0.0000000000000000e+00  -1.1121579170212078e-05 5.0000000000000002e-05 0.0000000000000000e+00  -1.1419921404026808e-05 5.0000000000000002e-05 0.0000000000000000e+00  -1.1720738205259531e-05 5.0000000000000002e-05 0.0000000000000000e+00  -1.2022777048319658e-05 5.0000000000000002e-05 0.0000000000000000e+00  -1.2327230535161813e-05 5.0000000000000002e-05 0.0000000000000000e+00  -1.2633789237876041e-05 5.0000000000000002e-05 0.0000000000000000e+00  -1.2942528593036562e-05 5.0000000000000002e-05 0.0000000000000000e+00  -1.3252978103904493e-05 5.0000000000000002e-05 0.0000000000000000e+00  -1.3564942564291150e-05 5.0000000000000002e-05 0.0000000000000000e+00  -1.3878744003992566e-05 5.0000000000000002e-05 0.0000000000000000e+00  -1.4194516208914523e-05 5.0000000000000002e-05 0.0000000000000000e+00  -1.4511609719559750e-05 5.0000000000000002e-05 0.0000000000000000e+00  -1.4829965026797386e-05 5.0000000000000002e-05 0.0000000000000000e+00  -1.5149586051718808e-05 5.0000000000000002e-05 0.0000000000000000e+00  -1.5470484980545211e-05 5.0000000000000002e-05 0.0000000000000000e+00  -1.5791803907893212e-05 5.0000000000000002e-05 0.0000000000000000e+00  -1.6114273355052924e-05 5.0000000000000002e-05 0.0000000000000000e+00  -1.6436470485467110e-05 5.0000000000000002e-05 0.0000000000000000e+00  -1.6759471687053359e-05 5.0000000000000002e-05 0.0000000000000000e+00  -1.7082560975811092e-05 5.0000000000000002e-05 0.0000000000000000e+00  -1.7404836373067417e-05 5.0000000000000002e-05 0.0000000000000000e+00  -1.7726756908929667e-05 5.0000000000000002e-05 0.0000000000000000e+00  -1.8048030461494771e-05 5.0000000000000002e-05 0.0000000000000000e+00  -1.8368123024371632e-05 5.0000000000000002e-05 0.0000000000000000e+00  -1.8686541266137749e-05 5.0000000000000002e-05 0.0000000000000000e+00  -1.9004341136208830e-05 5.0000000000000002e-05 0.0000000000000000e+00  -1.9319668413524097e-05 5.0000000000000002e-05 0.0000000000000000e+00  -1.9632690959030386e-05 5.0000000000000002e-05 0.0000000000000000e+00  -1.9943191467790572e-05 5.0000000000000002e-05 0.0000000000000000e+00  -2.0250487348375073e-05 5.0000000000000002e-05 0.0000000000000000e+00  -2.0555045698547271e-05 5.0000000000000002e-05 0.0000000000000000e+00  -2.0856834242394408e-05 5.0000000000000002e-05 0.0000000000000000e+00  -2.1153369405405776e-05 5.0000000000000002e-05 0.0000000000000000e+00  -2.1447516962598126e-05 5.0000000000000002e-05 0.0000000000000000e+00  -2.1732387052569755e-05 4.9135499885469745e-05 0.0000000000000000e+00  -2.1712290430741161e-05 4.8270727571133112e-05 0.0000000000000000e+00  -2.1683934877034391e-05 4.7405646502920708e-05 0.0000000000000000e+00  -2.1640110191253552e-05 4.6540192628386134e-05 0.0000000000000000e+00  -2.1585306975981124e-05 4.5675817237533653e-05 0.0000000000000000e+00  -2.1515598281149713e-05 4.4808568646590233e-05 0.0000000000000000e+00  -2.1435050876865150e-05 4.3942959462608071e-05 0.0000000000000000e+00  -2.1342374237461035e-05 4.3074935355002044e-05 0.0000000000000000e+00  -2.1235775970236880e-05 4.2206463452726075e-05 0.0000000000000000e+00  -2.1116066972394426e-05 4.1338760648718697e-05 0.0000000000000000e+00  -2.0983727704558679e-05 4.0467825350539978e-05 0.0000000000000000e+00  -2.0837828470323801e-05 3.9596608724180008e-05 0.0000000000000000e+00  -2.0679176408803902e-05 3.8722947665292545e-05 0.0000000000000000e+00  -2.0505953771602981e-05 3.7850367023140882e-05 0.0000000000000000e+00  -2.0319874049224409e-05 3.6973138142749999e-05 0.0000000000000000e+00  -2.0119167632342806e-05 3.6093434942379545e-05 0.0000000000000000e+00  -1.9903823443997907e-05 3.5213996424478040e-05 0.0000000000000000e+00  -1.9674294325702097e-05 3.4329884062103711e-05 0.0000000000000000e+00  -1.9429107452146464e-05 3.3445586955727778e-05 0.0000000000000000e+00  -1.9168783248352600e-05 3.2557339379496951e-05 0.0000000000000000e+00  -1.8893721224744539e-05 3.1663246167005012e-05 0.0000000000000000e+00  -1.8601376446514308e-05 3.0769800647866714e-05 0.0000000000000000e+00  -1.8293498642079283e-05 2.9869145191598404e-05 0.0000000000000000e+00  -1.7967154050609016e-05 2.8966452919781260e-05 0.0000000000000000e+00  -1.7625460328888670e-05 2.8056892233919923e-05 0.0000000000000000e+00  -1.7263749665444855e-05 2.7145540887968321e-05 0.0000000000000000e+00  -1.6886007290118261e-05 2.6223822794983503e-05 0.000000000000000