<?xml version="1.0"?>
<VTKFile type="UnstructuredGrid"  version="0.1"  >
<UnstructuredGrid>
<Piece  NumberOfPoints="16512" NumberOfCells="32424">
<Points>
<DataArray  type="Float64"  NumberOfComponents="3"  format="ascii">-25 4.9 0  25 4.9 0  25 -4.9 0  -25 -4.9 0  -10 0 0  10 0 0  -24.80000000000034 4.9 0  -24.60000000000068 4.9 0  -24.40000000000101 4.9 0  -24.20000000000135 4.9 0  -24.00000000000169 4.9 0  -23.80000000000203 4.9 0  -23.60000000000237 4.9 0  -23.40000000000271 4.9 0  -23.20000000000304 4.9 0  -23.00000000000338 4.9 0  -22.80000000000372 4.9 0  -22.60000000000406 4.9 0  -22.40000000000439 4.9 0  -22.20000000000473 4.9 0  -22.00000000000507 4.9 0  -21.80000000000541 4.9 0  -21.60000000000575 4.9 0  -21.40000000000608 4.9 0  -21.20000000000642 4.9 0  -21.00000000000676 4.9 0  -20.8000000000071 4.9 0  -20.60000000000744 4.9 0  -20.40000000000777 4.9 0  -20.20000000000811 4.9 0  -20.00000000000845 4.9 0  -19.80000000000879 4.9 0  -19.60000000000912 4.9 0  -19.40000000000946 4.9 0  -19.2000000000098 4.9 0  -19.00000000001039 4.9 0  -18.80000000001108 4.9 0  -18.60000000001231 4.9 0  -18.40000000001371 4.9 0  -18.2000000000154 4.9 0  -18.00000000001716 4.9 0  -17.80000000001892 4.9 0  -17.60000000002067 4.9 0  -17.40000000002243 4.9 0  -17.20000000002419 4.9 0  -17.00000000002595 4.9 0  -16.80000000002771 4.9 0  -16.60000000002947 4.9 0  -16.40000000003123 4.9 0  -16.20000000003299 4.9 0  -16.00000000003472 4.9 0  -15.80000000003612 4.9 0  -15.60000000003748 4.9 0  -15.40000000003853 4.9 0  -15.20000000003958 4.9 0  -15.00000000004063 4.9 0  -14.80000000004168 4.9 0  -14.60000000004273 4.9 0  -14.40000000004377 4.9 0  -14.20000000004482 4.9 0  -14.00000000004587 4.9 0  -13.80000000004692 4.9 0  -13.60000000004797 4.9 0  -13.40000000004902 4.9 0  -13.20000000005007 4.9 0  -13.00000000005111 4.9 0  -12.80000000005216 4.9 0  -12.60000000005321 4.9 0  -12.40000000005426 4.9 0  -12.20000000005531 4.9 0  -12.00000000005636 4.9 0  -11.80000000005741 4.9 0  -11.60000000005846 4.9 0  -11.4000000000595 4.9 0  -11.20000000006055 4.9 0  -11.0000000000616 4.9 0  -10.80000000006265 4.9 0  -10.6000000000637 4.9 0  -10.40000000006475 4.9 0  -10.2000000000658 4.9 0  -10.00000000006684 4.9 0  -9.800000000067891 4.9 0  -9.60000000006894 4.9 0  -9.400000000069989 4.9 0  -9.200000000070727 4.9 0  -9.00000000007142 4.9 0  -8.800000000071787 4.9 0  -8.600000000072125 4.9 0  -8.400000000072467 4.9 0  -8.200000000072805 4.9 0  -8.000000000073143 4.9 0  -7.800000000073481 4.9 0  -7.60000000007382 4.9 0  -7.400000000074154 4.9 0  -7.200000000074493 4.9 0  -7.000000000074831 4.9 0  -6.800000000075173 4.9 0  -6.600000000075511 4.9 0  -6.400000000075849 4.9 0  -6.200000000076187 4.9 0  -6.000000000076525 4.9 0  -5.800000000076867 4.9 0  -5.600000000077205 4.9 0  -5.400000000077544 4.9 0  -5.200000000077882 4.9 0  -5.00000000007822 4.9 0  -4.800000000078558 4.9 0  -4.600000000078897 4.9 0  -4.400000000079235 4.9 0  -4.200000000079573 4.9 0  -4.000000000079908 4.9 0  -3.800000000080246 4.9 0  -3.600000000080588 4.9 0  -3.400000000080926 4.9 0  -3.200000000081264 4.9 0  -3.000000000081606 4.9 0  -2.800000000081944 4.9 0  -2.600000000082282 4.9 0  -2.40000000008262 4.9 0  -2.200000000082959 4.9 0  -2.000000000083297 4.9 0  -1.800000000083635 4.9 0  -1.600000000083973 4.9 0  -1.400000000084312 4.9 0  -1.20000000008465 4.9 0  -1.000000000084988 4.9 0  -0.8000000000853262 4.9 0  -0.6000000000856645 4.9 0  -0.4000000000860027 4.9 0  -0.2000000000863409 4.9 0  -8.667910833537462e-11 4.9 0  0.1999999999129827 4.9 0  0.3999999999126409 4.9 0  0.5999999999123027 4.9 0  0.7999999999119716 4.9 0  0.9999999999116262 4.9 0  1.199999999911295 4.9 0  1.39999999991095 4.9 0  1.599999999910619 4.9 0  1.799999999910273 4.9 0  1.999999999909939 4.9 0  2.199999999909597 4.9 0  2.399999999909262 4.9 0  2.599999999908921 4.9 0  2.799999999908582 4.9 0  2.999999999908244 4.9 0  3.199999999907906 4.9 0  3.399999999907564 4.9 0  3.599999999907226 4.9 0  3.799999999906888 4.9 0  3.999999999906549 4.9 0  4.199999999906218 4.9 0  4.399999999905873 4.9 0  4.599999999905542 4.9 0  4.799999999905197 4.9 0  4.999999999904865 4.9 0  5.19999999990452 4.9 0  5.399999999904182 4.9 0  5.599999999903844 4.9 0  5.799999999903505 4.9 0  5.999999999903167 4.9 0  6.199999999902829 4.9 0  6.399999999902491 4.9 0  6.599999999902153 4.9 0  6.799999999902379 4.9 0  6.999999999902752 4.9 0  7.199999999903724 4.9 0  7.399999999904807 4.9 0  7.59999999990589 4.9 0  7.799999999906966 4.9 0  7.999999999908056 4.9 0  8.199999999909132 4.9 0  8.399999999910214 4.9 0  8.59999999991129 4.9 0  8.79999999991238 4.9 0  8.999999999913456 4.9 0  9.199999999914539 4.9 0  9.399999999915622 4.9 0  9.599999999916704 4.9 0  9.79999999991778 4.9 0  9.99999999991887 4.9 0  10.19999999991995 4.9 0  10.39999999992103 4.9 0  10.59999999992212 4.9 0  10.79999999992319 4.9 0  10.99999999992428 4.9 0  11.19999999992536 4.9 0  11.39999999992644 4.9 0  11.59999999992752 4.9 0  11.7999999999286 4.9 0  11.99999999992968 4.9 0  12.19999999993077 4.9 0  12.39999999993184 4.9 0  12.59999999993293 4.9 0  12.79999999993401 4.9 0  12.99999999993509 4.9 0  13.19999999993617 4.9 0  13.39999999993726 4.9 0  13.59999999993834 4.9 0  13.79999999993942 4.9 0  13.99999999994051 4.9 0  14.19999999994158 4.9 0  14.39999999994266 4.9 0  14.59999999994375 4.9 0  14.79999999994483 4.9 0  14.99999999994591 4.9 0  15.199999999947 4.9 0  15.39999999994807 4.9 0  15.59999999994915 4.9 0  15.79999999995024 4.9 0  15.99999999995132 4.9 0  16.1999999999524 4.9 0  16.39999999995349 4.9 0  16.59999999995456 4.9 0  16.79999999995565 4.9 0  16.99999999995674 4.9 0  17.19999999995781 4.9 0  17.39999999995889 4.9 0  17.59999999995997 4.9 0  17.79999999996106 4.9 0  17.99999999996214 4.9 0  18.19999999996322 4.9 0  18.3999999999643 4.9 0  18.59999999996538 4.9 0  18.79999999996646 4.9 0  18.99999999996755 4.9 0  19.19999999996863 4.9 0  19.39999999996971 4.9 0  19.59999999997079 4.9 0  19.79999999997187 4.9 0  19.99999999997296 4.9 0  20.19999999997404 4.9 0  20.39999999997512 4.9 0  20.5999999999762 4.9 0  20.79999999997728 4.9 0  20.99999999997836 4.9 0  21.19999999997945 4.9 0  21.39999999998052 4.9 0  21.59999999998161 4.9 0  21.79999999998269 4.9 0  21.99999999998377 4.9 0  22.19999999998485 4.9 0  22.39999999998594 4.9 0  22.59999999998701 4.9 0  22.7999999999881 4.9 0  22.99999999998919 4.9 0  23.19999999999026 4.9 0  23.39999999999135 4.9 0  23.59999999999243 4.9 0  23.79999999999351 4.9 0  23.99999999999459 4.9 0  24.19999999999568 4.9 0  24.39999999999675 4.9 0  24.59999999999783 4.9 0  24.79999999999892 4.9 0  25 4.700000000000415 0  25 4.500000000000868 0  25 4.300000000001562 0  25 4.100000000001831 0  25 3.900000000002072 0  25 3.700000000002459 0  25 3.500000000003038 0  25 3.300000000003653 0  25 3.100000000004294 0  25 2.900000000004838 0  25 2.700000000005293 0  25 2.500000000005957 0  25 2.300000000006508 0  25 2.100000000007153 0  25 1.900000000007722 0  25 1.700000000008417 0  25 1.500000000008938 0  25 1.30000000000963 0  25 1.100000000010154 0  25 0.9000000000108268 0  25 0.7000000000114559 0  25 0.5000000000119762 0  25 0.3000000000126564 0  25 0.1000000000131926 0  25 -0.09999999998679243 0  25 -0.2999999999874587 0  25 -0.4999999999878586 0  25 -0.6999999999884441 0  25 -0.899999999988804 0  25 -1.099999999989427 0  25 -1.299999999989749 0  25 -1.499999999990411 0  25 -1.69999999999073 0  25 -1.899999999991396 0  25 -2.099999999991715 0  25 -2.299999999992381 0  25 -2.499999999993047 0  25 -2.699999999993714 0  25 -2.899999999994227 0  25 -3.099999999994698 0  25 -3.299999999994673 0  25 -3.499999999995339 0  25 -3.699999999996004 0  25 -3.89999999999667 0  25 -4.099999999997335 0  25 -4.299999999998002 0  25 -4.499999999998668 0  25 -4.699999999999335 0  24.80000000000034 -4.9 0  24.60000000000068 -4.9 0  24.40000000000101 -4.9 0  24.20000000000135 -4.9 0  24.00000000000169 -4.9 0  23.80000000000203 -4.9 0  23.60000000000237 -4.9 0  23.40000000000271 -4.9 0  23.20000000000304 -4.9 0  23.00000000000338 -4.9 0  22.80000000000372 -4.9 0  22.60000000000406 -4.9 0  22.40000000000439 -4.9 0  22.20000000000473 -4.9 0  22.00000000000507 -4.9 0  21.80000000000541 -4.9 0  21.60000000000575 -4.9 0  21.40000000000608 -4.9 0  21.20000000000642 -4.9 0  21.00000000000676 -4.9 0  20.8000000000071 -4.9 0  20.60000000000744 -4.9 0  20.40000000000777 -4.9 0  20.20000000000811 -4.9 0  20.00000000000845 -4.9 0  19.80000000000879 -4.9 0  19.60000000000912 -4.9 0  19.40000000000946 -4.9 0  19.2000000000098 -4.9 0  19.00000000001039 -4.9 0  18.80000000001108 -4.9 0  18.60000000001231 -4.9 0  18.40000000001371 -4.9 0  18.2000000000154 -4.9 0  18.00000000001716 -4.9 0  17.80000000001892 -4.9 0  17.60000000002067 -4.9 0  17.40000000002243 -4.9 0  17.20000000002419 -4.9 0  17.00000000002595 -4.9 0  16.80000000002771 -4.9 0  16.60000000002947 -4.9 0  16.40000000003123 -4.9 0  16.20000000003299 -4.9 0  16.00000000003472 -4.9 0  15.80000000003612 -4.9 0  15.60000000003748 -4.9 0  15.40000000003853 -4.9 0  15.20000000003958 -4.9 0  15.00000000004063 -4.9 0  14.80000000004168 -4.9 0  14.60000000004273 -4.9 0  14.40000000004377 -4.9 0  14.20000000004482 -4.9 0  14.00000000004587 -4.9 0  13.80000000004692 -4.9 0  13.60000000004797 -4.9 0  13.40000000004902 -4.9 0  13.20000000005007 -4.9 0  13.00000000005111 -4.9 0  12.80000000005216 -4.9 0  12.60000000005321 -4.9 0  12.40000000005426 -4.9 0  12.20000000005531 -4.9 0  12.00000000005636 -4.9 0  11.80000000005741 -4.9 0  11.60000000005846 -4.9 0  11.4000000000595 -4.9 0  11.20000000006055 -4.9 0  11.0000000000616 -4.9 0  10.80000000006265 -4.9 0  10.6000000000637 -4.9 0  10.40000000006475 -4.9 0  10.2000000000658 -4.9 0  10.00000000006684 -4.9 0  9.800000000067891 -4.9 0  9.60000000006894 -4.9 0  9.400000000069989 -4.9 0  9.200000000070727 -4.9 0  9.00000000007142 -4.9 0  8.800000000071787 -4.9 0  8.600000000072125 -4.9 0  8.400000000072467 -4.9 0  8.200000000072805 -4.9 0  8.000000000073143 -4.9 
[...]
<PointData  Vectors="f_7"> 
<DataArray  type="Float64"  Name="f_7"  NumberOfComponents="3" format="ascii">3.8395762914507830e-04 1.0000000000000000e-03 0.0000000000000000e+00  -3.8389331907208072e-04 1.0000000000000000e-03 0.0000000000000000e+00  0.0000000000000000e+00 0.0000000000000000e+00 0.0000000000000000e+00  0.0000000000000000e+00 0.0000000000000000e+00 0.0000000000000000e+00  5.0510077265630725e-05 4.7826692300301357e-04 0.0000000000000000e+00  -5.2233982236977876e-05 4.5226746923372014e-04 0.0000000000000000e+00  3.7789903443143487e-04 1.0000000000000000e-03 0.0000000000000000e+00  3.7180384981272939e-04 1.0000000000000000e-03 0.0000000000000000e+00  3.6567720130015641e-04 1.0000000000000000e-03 0.0000000000000000e+00  3.5944511545500451e-04 1.0000000000000000e-03 0.0000000000000000e+00  3.5318545567846892e-04 1.0000000000000000e-03 0.0000000000000000e+00  3.4684661197612179e-04 1.0000000000000000e-03 0.0000000000000000e+00  3.4047067531862198e-04 1.0000000000000000e-03 0.0000000000000000e+00  3.3402652802997192e-04 1.0000000000000000e-03 0.0000000000000000e+00  3.2756335104306122e-04 1.0000000000000000e-03 0.0000000000000000e+00  3.2104031473771444e-04 1.0000000000000000e-03 0.0000000000000000e+00  3.1448078846418414e-04 1.0000000000000000e-03 0.0000000000000000e+00  3.0791206754932646e-04 1.0000000000000000e-03 0.0000000000000000e+00  3.0127327923960877e-04 1.0000000000000000e-03 0.0000000000000000e+00  2.9463071911430770e-04 1.0000000000000000e-03 0.0000000000000000e+00  2.8797395970547781e-04 1.0000000000000000e-03 0.0000000000000000e+00  2.8130595074910112e-04 1.0000000000000000e-03 0.0000000000000000e+00  2.7458802620306850e-04 1.0000000000000000e-03 0.0000000000000000e+00  2.6787732741447490e-04 1.0000000000000000e-03 0.0000000000000000e+00  2.6117303734895722e-04 1.0000000000000000e-03 0.0000000000000000e+00  2.5443540499072798e-04 1.0000000000000000e-03 0.0000000000000000e+00  2.4770463376603478e-04 1.0000000000000000e-03 0.0000000000000000e+00  2.4097636722621906e-04 1.0000000000000000e-03 0.0000000000000000e+00  2.3425815231396691e-04 1.0000000000000000e-03 0.0000000000000000e+00  2.2755366203831148e-04 1.0000000000000000e-03 0.0000000000000000e+00  2.2082199956358436e-04 1.0000000000000000e-03 0.0000000000000000e+00  2.1410800308154543e-04 1.0000000000000000e-03 0.0000000000000000e+00  2.0741017018374551e-04 1.0000000000000000e-03 0.0000000000000000e+00  2.0071539465045437e-04 1.0000000000000000e-03 0.0000000000000000e+00  1.9403063669068329e-04 1.0000000000000000e-03 0.0000000000000000e+00  1.8735701381990217e-04 1.0000000000000000e-03 0.0000000000000000e+00  1.8068528251576692e-04 1.0000000000000000e-03 0.0000000000000000e+00  1.7402218078630430e-04 1.0000000000000000e-03 0.0000000000000000e+00  1.6736905248135927e-04 1.0000000000000000e-03 0.0000000000000000e+00  1.6072557947946917e-04 1.0000000000000000e-03 0.0000000000000000e+00  1.5406935381302115e-04 1.0000000000000000e-03 0.0000000000000000e+00  1.4742160944628932e-04 1.0000000000000000e-03 0.0000000000000000e+00  1.4076882178040603e-04 1.0000000000000000e-03 0.0000000000000000e+00  1.3411408484247938e-04 1.0000000000000000e-03 0.0000000000000000e+00  1.2744607549048910e-04 1.0000000000000000e-03 0.0000000000000000e+00  1.2076920559441380e-04 1.0000000000000000e-03 0.0000000000000000e+00  1.1407886682221430e-04 1.0000000000000000e-03 0.0000000000000000e+00  1.0736784772004960e-04 1.0000000000000000e-03 0.0000000000000000e+00  1.0063183075992703e-04 1.0000000000000000e-03 0.0000000000000000e+00  9.3868121651119100e-05 1.0000000000000000e-03 0.0000000000000000e+00  8.7070726024221270e-05 1.0000000000000000e-03 0.0000000000000000e+00  8.0235966487826057e-05 1.0000000000000000e-03 0.0000000000000000e+00  7.3362977969907673e-05 1.0000000000000000e-03 0.0000000000000000e+00  6.6439448282941684e-05 1.0000000000000000e-03 0.0000000000000000e+00  5.9462324734104977e-05 1.0000000000000000e-03 0.0000000000000000e+00  5.2437771674056502e-05 1.0000000000000000e-03 0.0000000000000000e+00  4.5352011096548534e-05 1.0000000000000000e-03 0.0000000000000000e+00  3.8209164008439140e-05 1.0000000000000000e-03 0.0000000000000000e+00  3.1006471109811543e-05 1.0000000000000000e-03 0.0000000000000000e+00  2.3720432952657900e-05 1.0000000000000000e-03 0.0000000000000000e+00  1.6406732615088053e-05 1.0000000000000000e-03 0.0000000000000000e+00  9.0274235438540791e-06 1.0000000000000000e-03 0.0000000000000000e+00  1.5960815677207251e-06 1.0000000000000000e-03 0.0000000000000000e+00  -5.8871747654732763e-06 1.0000000000000000e-03 0.0000000000000000e+00  -1.3393628107162241e-05 1.0000000000000000e-03 0.0000000000000000e+00  -2.0933956955719898e-05 1.0000000000000000e-03 0.0000000000000000e+00  -2.8427124201007996e-05 1.0000000000000000e-03 0.0000000000000000e+00  -3.5908273938037553e-05 1.0000000000000000e-03 0.0000000000000000e+00  -4.3337730226704837e-05 1.0000000000000000e-03 0.0000000000000000e+00  -5.0700781738174931e-05 1.0000000000000000e-03 0.0000000000000000e+00  -5.7957822672764480e-05 1.0000000000000000e-03 0.0000000000000000e+00  -6.5011082849217224e-05 1.0000000000000000e-03 0.0000000000000000e+00  -7.1856346108738699e-05 1.0000000000000000e-03 0.0000000000000000e+00  -7.8384831945188819e-05 1.0000000000000000e-03 0.0000000000000000e+00  -8.4670359738551652e-05 1.0000000000000000e-03 0.0000000000000000e+00  -9.0688300450087576e-05 1.0000000000000000e-03 0.0000000000000000e+00  -9.6260268068157614e-05 1.0000000000000000e-03 0.0000000000000000e+00  -1.0130576184080482e-04 1.0000000000000000e-03 0.0000000000000000e+00  -1.0588223937992436e-04 1.0000000000000000e-03 0.0000000000000000e+00  -1.1004514560386506e-04 1.0000000000000000e-03 0.0000000000000000e+00  -1.1353250097092809e-04 1.0000000000000000e-03 0.0000000000000000e+00  -1.1654571947009396e-04 1.0000000000000000e-03 0.0000000000000000e+00  -1.1896401732992182e-04 1.0000000000000000e-03 0.0000000000000000e+00  -1.2074357927710600e-04 1.0000000000000000e-03 0.0000000000000000e+00  -1.2197760943252970e-04 1.0000000000000000e-03 0.0000000000000000e+00  -1.2269296442282557e-04 1.0000000000000000e-03 0.0000000000000000e+00  -1.2285863651683286e-04 1.0000000000000000e-03 0.0000000000000000e+00  -1.2249833638859896e-04 1.0000000000000000e-03 0.0000000000000000e+00  -1.2164158973998431e-04 1.0000000000000000e-03 0.0000000000000000e+00  -1.2033750430145504e-04 1.0000000000000000e-03 0.0000000000000000e+00  -1.1868540099059748e-04 1.0000000000000000e-03 0.0000000000000000e+00  -1.1670379588223850e-04 1.0000000000000000e-03 0.0000000000000000e+00  -1.1436432004726531e-04 1.0000000000000000e-03 0.0000000000000000e+00  -1.1172857514636600e-04 1.0000000000000000e-03 0.0000000000000000e+00  -1.0891544061488680e-04 1.0000000000000000e-03 0.0000000000000000e+00  -1.0591756563305642e-04 1.0000000000000000e-03 0.0000000000000000e+00  -1.0277056947423911e-04 1.0000000000000000e-03 0.0000000000000000e+00  -9.9451293857637978e-05 1.0000000000000000e-03 0.0000000000000000e+00  -9.6062444124970717e-05 1.0000000000000000e-03 0.0000000000000000e+00  -9.2607496056065232e-05 1.0000000000000000e-03 0.0000000000000000e+00  -8.9121224332856615e-05 1.0000000000000000e-03 0.0000000000000000e+00  -8.5578367829215504e-05 1.0000000000000000e-03 0.0000000000000000e+00  -8.2047326821429805e-05 1.0000000000000000e-03 0.0000000000000000e+00  -7.8529828623366286e-05 1.0000000000000000e-03 0.0000000000000000e+00  -7.5027265355560792e-05 1.0000000000000000e-03 0.0000000000000000e+00  -7.1553259326521178e-05 1.0000000000000000e-03 0.0000000000000000e+00  -6.8124028641717253e-05 1.0000000000000000e-03 0.0000000000000000e+00  -6.4747109196146275e-05 1.0000000000000000e-03 0.0000000000000000e+00  -6.1393602343370331e-05 1.0000000000000000e-03 0.0000000000000000e+00  -5.8107042537734624e-05 1.0000000000000000e-03 0.0000000000000000e+00  -5.4878701195919483e-05 1.0000000000000000e-03 0.0000000000000000e+00  -5.1712029745796289e-05 1.0000000000000000e-03 0.0000000000000000e+00  -4.8607056548012093e-05 1.0000000000000000e-03 0.0000000000000000e+00  -4.5552061699179891e-05 1.0000000000000000e-03 0.0000000000000000e+00  -4.2555705567155972e-05 1.0000000000000000e-03 0.0000000000000000e+00  -3.9618609396769421e-05 1.0000000000000000e-03 0.0000000000000000e+00  -3.6734822925576198e-05 1.0000000000000000e-03 0.0000000000000000e+00  -3.3904400366764236e-05 1.0000000000000000e-03 0.0000000000000000e+00  -3.1112072424783432e-05 1.0000000000000000e-03 0.0000000000000000e+00  -2.8369917064563817e-05 1.0000000000000000e-03 0.0000000000000000e+00  -2.5666613848033088e-05 1.0000000000000000e-03 0.0000000000000000e+00  -2.3004390875204276e-05 1.0000000000000000e-03 0.0000000000000000e+00  -2.0374267712124267e-05 1.0000000000000000e-03 0.0000000000000000e+00  -1.7777326440242763e-05 1.0000000000000000e-03 0.0000000000000000e+00  -1.5207971176366461e-05 1.0000000000000000e-03 0.0000000000000000e+00  -1.2662435769536627e-05 1.0000000000000000e-03 0.0000000000000000e+00  -1.0138072966830232e-05 1.0000000000000000e-03 0.0000000000000000e+00  -7.6307409882009464e-06 1.0000000000000000e-03 0.0000000000000000e+00  -5.1361778077797333e-06 1.0000000000000000e-03 0.0000000000000000e+00  -2.6498069376058463e-06 1.0000000000000000e-03 0.0000000000000000e+00  -1.7004470682852295e-07 1.0000000000000000e-03 0.0000000000000000e+00  2.3066349697683569e-06 1.0000000000000000e-03 0.0000000000000000e+00  4.7863219199310415e-06 1.0000000000000000e-03 0.0000000000000000e+00  7.2705842025134870e-06 1.0000000000000000e-03 0.0000000000000000e+00  9.7641401360932034e-06 1.0000000000000000e-03 0.0000000000000000e+00  1.2270024912372823e-05 1.0000000000000000e-03 0.0000000000000000e+00  1.4793423413178339e-05 1.0000000000000000e-03 0.0000000000000000e+00  1.7338433627072054e-05 1.0000000000000000e-03 0.0000000000000000e+00  1.9910906218879374e-05 1.0000000000000000e-03 0.0000000000000000e+00  2.2512919418760070e-05 1.0000000000000000e-03 0.0000000000000000e+00  2.5144247582117011e-05 1.0000000000000000e-03 0.0000000000000000e+00  2.7813244535492109e-05 1.0000000000000000e-03 0.0000000000000000e+00  3.0524027708086613e-05 1.0000000000000000e-03 0.0000000000000000e+00  3.3279462083067791e-05 1.0000000000000000e-03 0.0000000000000000e+00  3.6082221978718363e-05 1.0000000000000000e-03 0.0000000000000000e+00  3.8937713515459109e-05 1.0000000000000000e-03 0.0000000000000000e+00  4.1843132005426750e-05 1.0000000000000000e-03 0.0000000000000000e+00  4.4809624894671386e-05 1.0000000000000000e-03 0.0000000000000000e+00  4.7835730696872006e-05 1.0000000000000000e-03 0.0000000000000000e+00  5.0909826525986192e-05 1.0000000000000000e-03 0.0000000000000000e+00  5.4051321868284421e-05 1.0000000000000000e-03 0.0000000000000000e+00  5.7253318533126642e-05 1.0000000000000000e-03 0.0000000000000000e+00  6.0513335849214495e-05 1.0000000000000000e-03 0.0000000000000000e+00  6.3831598920408323e-05 1.0000000000000000e-03 0.0000000000000000e+00  6.7199671857048299e-05 1.0000000000000000e-03 0.0000000000000000e+00  7.0646139266355637e-05 1.0000000000000000e-03 0.0000000000000000e+00  7.4102137400654225e-05 1.0000000000000000e-03 0.0000000000000000e+00  7.7604653835493815e-05 1.0000000000000000e-03 0.0000000000000000e+00  8.1141729031371040e-05 1.0000000000000000e-03 0.0000000000000000e+00  8.4704089519303178e-05 1.0000000000000000e-03 0.0000000000000000e+00  8.8246714538305445e-05 1.0000000000000000e-03 0.0000000000000000e+00  9.1784714857754847e-05 1.0000000000000000e-03 0.0000000000000000e+00  9.5283342305581628e-05 1.0000000000000000e-03 0.0000000000000000e+00  9.8728828178233437e-05 1.0000000000000000e-03 0.0000000000000000e+00  1.0210545440703960e-04 1.0000000000000000e-03 0.0000000000000000e+00  1.0532313528981389e-04 1.0000000000000000e-03 0.0000000000000000e+00  1.0839434353026907e-04 1.0000000000000000e-03 0.0000000000000000e+00  1.1124516957005348e-04 1.0000000000000000e-03 0.0000000000000000e+00  1.1394834408998811e-04 1.0000000000000000e-03 0.0000000000000000e+00  1.1634612741381341e-04 1.0000000000000000e-03 0.0000000000000000e+00  1.1841113636139573e-04 1.0000000000000000e-03 0.0000000000000000e+00  1.2016944717142582e-04 1.0000000000000000e-03 0.0000000000000000e+00  1.2146831885956636e-04 1.0000000000000000e-03 0.0000000000000000e+00  1.2246170790777380e-04 1.0000000000000000e-03 0.0000000000000000e+00  1.2295852112147510e-04 1.0000000000000000e-03 0.0000000000000000e+00  1.2286181837737440e-04 1.0000000000000000e-03 0.0000000000000000e+00  1.2218223957392613e-04 1.0000000000000000e-03 0.0000000000000000e+00  1.2099813538371155e-04 1.0000000000000000e-03 0.0000000000000000e+00  1.1919944593645002e-04 1.0000000000000000e-03 0.0000000000000000e+00  1.1678839526103655e-04 1.0000000000000000e-03 0.0000000000000000e+00  1.1382525124973876e-04 1.0000000000000000e-03 0.0000000000000000e+00  1.1024302512543436e-04 1.0000000000000000e-03 0.0000000000000000e+00  1.0631809426869071e-04 1.0000000000000000e-03 0.0000000000000000e+00  1.0167666024757065e-04 1.0000000000000000e-03 0.0000000000000000e+00  9.6574008093295647e-05 1.0000000000000000e-03 0.0000000000000000e+00  9.1035270763577519e-05 1.0000000000000000e-03 0.0000000000000000e+00  8.5078694538568951e-05 1.0000000000000000e-03 0.0000000000000000e+00  7.8816124569376243e-05 1.0000000000000000e-03 0.0000000000000000e+00  7.2180828666177117e-05 1.0000000000000000e-03 0.0000000000000000e+00  6.5346337191225253e-05 1.0000000000000000e-03 0.0000000000000000e+00  5.8249580209970514e-05 1.0000000000000000e-03 0.0000000000000000e+00  5.1012614845923590e-05 1.0000000000000000e-03 0.0000000000000000e+00  4.3658778217620324e-05 1.0000000000000000e-03 0.0000000000000000e+00  3.6226498843309381e-05 1.0000000000000000e-03 0.0000000000000000e+00  2.8705109044779466e-05 1.0000000000000000e-03 0.0000000000000000e+00  2.1181508373509379e-05 1.0000000000000000e-03 0.0000000000000000e+00  1.3642077061667158e-05 1.0000000000000000e-03 0.0000000000000000e+00  6.1234253835399716e-06 1.0000000000000000e-03 0.0000000000000000e+00  -1.3648946261540340e-06 1.0000000000000000e-03 0.0000000000000000e+00  -8.8102948238186706e-06 1.0000000000000000e-03 0.0000000000000000e+00  -1.6205846096514511e-05 1.0000000000000000e-03 0.0000000000000000e+00  -2.3543146225746401e-05 1.0000000000000000e-03 0.0000000000000000e+00  -3.0815072476995382e-05 1.0000000000000000e-03 0.0000000000000000e+00  -3.8039891710859950e-05 1.0000000000000000e-03 0.0000000000000000e+00  -4.5193094010674305e-05 1.0000000000000000e-03 0.0000000000000000e+00  -5.2279699895538910e-05 1.0000000000000000e-03 0.0000000000000000e+00  -5.9321070035140132e-05 1.0000000000000000e-03 0.0000000000000000e+00  -6.6298390272461112e-05 1.0000000000000000e-03 0.0000000000000000e+00  -7.3229126829516968e-05 1.0000000000000000e-03 0.0000000000000000e+00  -8.0111952474059184e-05 1.0000000000000000e-03 0.0000000000000000e+00  -8.6952944951140966e-05 1.0000000000000000e-03 0.0000000000000000e+00  -9.3755728745959546e-05 1.0000000000000000e-03 0.0000000000000000e+00  -1.0052101608188082e-04 1.0000000000000000e-03 0.0000000000000000e+00  -1.0726063398549331e-04 1.0000000000000000e-03 0.0000000000000000e+00  -1.1397686624727136e-04 1.0000000000000000e-03 0.0000000000000000e+00  -1.2067444515405663e-04 1.0000000000000000e-03 0.0000000000000000e+00  -1.2735594347633544e-04 1.0000000000000000e-03 0.0000000000000000e+00  -1.3401974766671240e-04 1.0000000000000000e-03 0.0000000000000000e+00  -1.4067716155814696e-04 1.0000000000000000e-03 0.0000000000000000e+00  -1.4733203913617698e-04 1.0000000000000000e-03 0.0000000000000000e+00  -1.5398866325141766e-04 1.0000000000000000e-03 0.0000000000000000e+00  -1.6063285818216226e-04 1.0000000000000000e-03 0.0000000000000000e+00  -1.6728630823727180e-04 1.0000000000000000e-03 0.0000000000000000e+00  -1.7394835695232777e-04 1.0000000000000000e-03 0.0000000000000000e+00  -1.8060441546857410e-04 1.0000000000000000e-03 0.0000000000000000e+00  -1.8727338000440306e-04 1.0000000000000000e-03 0.0000000000000000e+00  -1.9395246793832416e-04 1.0000000000000000e-03 0.0000000000000000e+00  -2.0064368622999446e-04 1.0000000000000000e-03 0.0000000000000000e+00  -2.0733965417548371e-04 1.0000000000000000e-03 0.0000000000000000e+00  -2.1403647439834062e-04 1.0000000000000000e-03 0.0000000000000000e+00  -2.2074421091886835e-04 1.0000000000000000e-03 0.0000000000000000e+00  -2.2746488773809601e-04 1.0000000000000000e-03 0.0000000000000000e+00  -2.3418613878275200e-04 1.0000000000000000e-03 0.0000000000000000e+00  -2.4090996971607608e-04 1.0000000000000000e-03 0.0000000000000000e+00  -2.4763593298496192e-04 1.0000000000000000e-03 0.0000000000000000e+00  -2.5436701985146333e-04 1.0000000000000000e-03 0.0000000000000000e+00  -2.6108763622284748e-04 1.0000000000000000e-03 0.0000000000000000e+00  -2.6781065699596447e-04 1.0000000000000000e-03 0.0000000000000000e+00  -2.7451467135591065e-04 1.0000000000000000e-03 0.0000000000000000e+00  -2.8121658231414182e-04 1.0000000000000000e-03 0.0000000000000000e+00  -2.8790553132137625e-04 1.0000000000000000e-03 0.0000000000000000e+00  -2.9456666569999395e-04 1.0000000000000000e-03 0.0000000000000000e+00  -3.0120893343248123e-04 1.0000000000000000e-03 0.0000000000000000e+00  -3.0782830333520993e-04 1.0000000000000000e-03 0.0000000000000000e+00  -3.1441614899763794e-04 1.0000000000000000e-03 0.0000000000000000e+00  -3.2096471657500129e-04 1.0000000000000000e-03 0.0000000000000000e+00  -3.2749343085138185e-04 1.0000000000000000e-03 0.0000000000000000e+00  -3.3397130228171265e-04 1.0000000000000000e-03 0.0000000000000000e+00  -3.4040249043293711e-04 1.0000000000000000e-03 0.0000000000000000e+00  -3.4678435505977725e-04 1.0000000000000000e-03 0.0000000000000000e+00  -3.5310704720067118e-04 1.0000000000000000e-03 0.0000000000000000e+00  -3.5937949539797379e-04 1.0000000000000000e-03 0.0000000000000000e+00  -3.6560181275449214e-04 1.0000000000000000e-03 0.0000000000000000e+00  -3.7173717556163486e-04 1.0000000000000000e-03 0.0000000000000000e+00  -3.7783212009064553e-04 1.0000000000000000e-03 0.0000000000000000e+00  -3.8378077368079214e-04 9.8200245896472240e-04 0.0000000000000000e+00  -3.8346808289232726e-04 9.6400230567518746e-04 0.0000000000000000e+00  -3.8302744403620904e-04 9.4599985400278179e-04 0.0000000000000000e+00  -3.8234461071767447e-04 9.2799514531069906e-04 0.0000000000000000e+00  -3.8148980317223607e-04 9.1001309684302838e-04 0.0000000000000000e+00  -3.8040166350050296e-04 8.9199116145081590e-04 0.0000000000000000e+00  -3.7914268031388683e-04 8.7400272549898296e-04 0.0000000000000000e+00  -3.7769087464066916e-04 8.5598527692584052e-04 0.0000000000000000e+00  -3.7601724474006255e-04 8.3797053528757691e-04 0.0000000000000000e+00  -3.7413625089950865e-04 8.1997966556219333e-04 0.0000000000000000e+00  -3.7204793092456250e-04 8.0194918664760648e-04 0.0000000000000000e+00  -3.6974368661880122e-04 7.8392729444272087e-04 0.0000000000000000e+00  -3.6722693925957090e-04 7.6588020710942242e-04 0.0000000000000000e+00  -3.6447365649201703e-04 7.4786735887907266e-04 0.0000000000000000e+00  -3.6150563489079855e-04 7.2979317846131177e-04 0.0000000000000000e+00  -3.5829163926110841e-04 7.1169541345555835e-04 0.0000000000000000e+00  -3.5483456516972178e-04 6.9362164296621288e-04 0.0000000000000000e+00  -3.5113112109955727e-04 6.7548840074561532e-04 0.0000000000000000e+00  -3.4716466969882115e-04 6.5737295408900423e-04 0.0000000000000000e+00  -3.4293651865755897e-04 6.3921316468825231e-04 0.0000000000000000e+00  -3.3844589127766348e-04 6.2097388479402335e-04 0.0000000000000000e+00  -3.3365954900542623e-04 6.0277006790685134e-04 0.0000000000000000e+00  -3.2859045175610271e-04 5.8446353461222408e-04 0.0000000000000000e+00  -3.2320209459081687e-04 5.6614631985670699e-04 0.0000000000000000e+00  -3.1752820528963357e-04 5.4773333636790337e-04 0.0000000000000000e+00  -3.1150040483273297e-04 5.2931721400903495e-04 0.0000000000000000e+00  -3.0516924993088934e-04 5.1074257956958266e-04 0.0000000000000000e+00  