<?xml version="1.0"?>
<VTKFile type="UnstructuredGrid"  version="0.1"  >
<UnstructuredGrid>
<Piece  NumberOfPoints="16512" NumberOfCells="32424">
<Points>
<DataArray  type="Float64"  NumberOfComponents="3"  format="ascii">-25 4.9 0  25 4.9 0  25 -4.9 0  -25 -4.9 0  -10 0 0  10 0 0  -24.80000000000034 4.9 0  -24.60000000000068 4.9 0  -24.40000000000101 4.9 0  -24.20000000000135 4.9 0  -24.00000000000169 4.9 0  -23.80000000000203 4.9 0  -23.60000000000237 4.9 0  -23.40000000000271 4.9 0  -23.20000000000304 4.9 0  -23.00000000000338 4.9 0  -22.80000000000372 4.9 0  -22.60000000000406 4.9 0  -22.40000000000439 4.9 0  -22.20000000000473 4.9 0  -22.00000000000507 4.9 0  -21.80000000000541 4.9 0  -21.60000000000575 4.9 0  -21.40000000000608 4.9 0  -21.20000000000642 4.9 0  -21.00000000000676 4.9 0  -20.8000000000071 4.9 0  -20.60000000000744 4.9 0  -20.40000000000777 4.9 0  -20.20000000000811 4.9 0  -20.00000000000845 4.9 0  -19.80000000000879 4.9 0  -19.60000000000912 4.9 0  -19.40000000000946 4.9 0  -19.2000000000098 4.9 0  -19.00000000001039 4.9 0  -18.80000000001108 4.9 0  -18.60000000001231 4.9 0  -18.40000000001371 4.9 0  -18.2000000000154 4.9 0  -18.00000000001716 4.9 0  -17.80000000001892 4.9 0  -17.60000000002067 4.9 0  -17.40000000002243 4.9 0  -17.20000000002419 4.9 0  -17.00000000002595 4.9 0  -16.80000000002771 4.9 0  -16.60000000002947 4.9 0  -16.40000000003123 4.9 0  -16.20000000003299 4.9 0  -16.00000000003472 4.9 0  -15.80000000003612 4.9 0  -15.60000000003748 4.9 0  -15.40000000003853 4.9 0  -15.20000000003958 4.9 0  -15.00000000004063 4.9 0  -14.80000000004168 4.9 0  -14.60000000004273 4.9 0  -14.40000000004377 4.9 0  -14.20000000004482 4.9 0  -14.00000000004587 4.9 0  -13.80000000004692 4.9 0  -13.60000000004797 4.9 0  -13.40000000004902 4.9 0  -13.20000000005007 4.9 0  -13.00000000005111 4.9 0  -12.80000000005216 4.9 0  -12.60000000005321 4.9 0  -12.40000000005426 4.9 0  -12.20000000005531 4.9 0  -12.00000000005636 4.9 0  -11.80000000005741 4.9 0  -11.60000000005846 4.9 0  -11.4000000000595 4.9 0  -11.20000000006055 4.9 0  -11.0000000000616 4.9 0  -10.80000000006265 4.9 0  -10.6000000000637 4.9 0  -10.40000000006475 4.9 0  -10.2000000000658 4.9 0  -10.00000000006684 4.9 0  -9.800000000067891 4.9 0  -9.60000000006894 4.9 0  -9.400000000069989 4.9 0  -9.200000000070727 4.9 0  -9.00000000007142 4.9 0  -8.800000000071787 4.9 0  -8.600000000072125 4.9 0  -8.400000000072467 4.9 0  -8.200000000072805 4.9 0  -8.000000000073143 4.9 0  -7.800000000073481 4.9 0  -7.60000000007382 4.9 0  -7.400000000074154 4.9 0  -7.200000000074493 4.9 0  -7.000000000074831 4.9 0  -6.800000000075173 4.9 0  -6.600000000075511 4.9 0  -6.400000000075849 4.9 0  -6.200000000076187 4.9 0  -6.000000000076525 4.9 0  -5.800000000076867 4.9 0  -5.600000000077205 4.9 0  -5.400000000077544 4.9 0  -5.200000000077882 4.9 0  -5.00000000007822 4.9 0  -4.800000000078558 4.9 0  -4.600000000078897 4.9 0  -4.400000000079235 4.9 0  -4.200000000079573 4.9 0  -4.000000000079908 4.9 0  -3.800000000080246 4.9 0  -3.600000000080588 4.9 0  -3.400000000080926 4.9 0  -3.200000000081264 4.9 0  -3.000000000081606 4.9 0  -2.800000000081944 4.9 0  -2.600000000082282 4.9 0  -2.40000000008262 4.9 0  -2.200000000082959 4.9 0  -2.000000000083297 4.9 0  -1.800000000083635 4.9 0  -1.600000000083973 4.9 0  -1.400000000084312 4.9 0  -1.20000000008465 4.9 0  -1.000000000084988 4.9 0  -0.8000000000853262 4.9 0  -0.6000000000856645 4.9 0  -0.4000000000860027 4.9 0  -0.2000000000863409 4.9 0  -8.667910833537462e-11 4.9 0  0.1999999999129827 4.9 0  0.3999999999126409 4.9 0  0.5999999999123027 4.9 0  0.7999999999119716 4.9 0  0.9999999999116262 4.9 0  1.199999999911295 4.9 0  1.39999999991095 4.9 0  1.599999999910619 4.9 0  1.799999999910273 4.9 0  1.999999999909939 4.9 0  2.199999999909597 4.9 0  2.399999999909262 4.9 0  2.599999999908921 4.9 0  2.799999999908582 4.9 0  2.999999999908244 4.9 0  3.199999999907906 4.9 0  3.399999999907564 4.9 0  3.599999999907226 4.9 0  3.799999999906888 4.9 0  3.999999999906549 4.9 0  4.199999999906218 4.9 0  4.399999999905873 4.9 0  4.599999999905542 4.9 0  4.799999999905197 4.9 0  4.999999999904865 4.9 0  5.19999999990452 4.9 0  5.399999999904182 4.9 0  5.599999999903844 4.9 0  5.799999999903505 4.9 0  5.999999999903167 4.9 0  6.199999999902829 4.9 0  6.399999999902491 4.9 0  6.599999999902153 4.9 0  6.799999999902379 4.9 0  6.999999999902752 4.9 0  7.199999999903724 4.9 0  7.399999999904807 4.9 0  7.59999999990589 4.9 0  7.799999999906966 4.9 0  7.999999999908056 4.9 0  8.199999999909132 4.9 0  8.399999999910214 4.9 0  8.59999999991129 4.9 0  8.79999999991238 4.9 0  8.999999999913456 4.9 0  9.199999999914539 4.9 0  9.399999999915622 4.9 0  9.599999999916704 4.9 0  9.79999999991778 4.9 0  9.99999999991887 4.9 0  10.19999999991995 4.9 0  10.39999999992103 4.9 0  10.59999999992212 4.9 0  10.79999999992319 4.9 0  10.99999999992428 4.9 0  11.19999999992536 4.9 0  11.39999999992644 4.9 0  11.59999999992752 4.9 0  11.7999999999286 4.9 0  11.99999999992968 4.9 0  12.19999999993077 4.9 0  12.39999999993184 4.9 0  12.59999999993293 4.9 0  12.79999999993401 4.9 0  12.99999999993509 4.9 0  13.19999999993617 4.9 0  13.39999999993726 4.9 0  13.59999999993834 4.9 0  13.79999999993942 4.9 0  13.99999999994051 4.9 0  14.19999999994158 4.9 0  14.39999999994266 4.9 0  14.59999999994375 4.9 0  14.79999999994483 4.9 0  14.99999999994591 4.9 0  15.199999999947 4.9 0  15.39999999994807 4.9 0  15.59999999994915 4.9 0  15.79999999995024 4.9 0  15.99999999995132 4.9 0  16.1999999999524 4.9 0  16.39999999995349 4.9 0  16.59999999995456 4.9 0  16.79999999995565 4.9 0  16.99999999995674 4.9 0  17.19999999995781 4.9 0  17.39999999995889 4.9 0  17.59999999995997 4.9 0  17.79999999996106 4.9 0  17.99999999996214 4.9 0  18.19999999996322 4.9 0  18.3999999999643 4.9 0  18.59999999996538 4.9 0  18.79999999996646 4.9 0  18.99999999996755 4.9 0  19.19999999996863 4.9 0  19.39999999996971 4.9 0  19.59999999997079 4.9 0  19.79999999997187 4.9 0  19.99999999997296 4.9 0  20.19999999997404 4.9 0  20.39999999997512 4.9 0  20.5999999999762 4.9 0  20.79999999997728 4.9 0  20.99999999997836 4.9 0  21.19999999997945 4.9 0  21.39999999998052 4.9 0  21.59999999998161 4.9 0  21.79999999998269 4.9 0  21.99999999998377 4.9 0  22.19999999998485 4.9 0  22.39999999998594 4.9 0  22.59999999998701 4.9 0  22.7999999999881 4.9 0  22.99999999998919 4.9 0  23.19999999999026 4.9 0  23.39999999999135 4.9 0  23.59999999999243 4.9 0  23.79999999999351 4.9 0  23.99999999999459 4.9 0  24.19999999999568 4.9 0  24.39999999999675 4.9 0  24.59999999999783 4.9 0  24.79999999999892 4.9 0  25 4.700000000000415 0  25 4.500000000000868 0  25 4.300000000001562 0  25 4.100000000001831 0  25 3.900000000002072 0  25 3.700000000002459 0  25 3.500000000003038 0  25 3.300000000003653 0  25 3.100000000004294 0  25 2.900000000004838 0  25 2.700000000005293 0  25 2.500000000005957 0  25 2.300000000006508 0  25 2.100000000007153 0  25 1.900000000007722 0  25 1.700000000008417 0  25 1.500000000008938 0  25 1.30000000000963 0  25 1.100000000010154 0  25 0.9000000000108268 0  25 0.7000000000114559 0  25 0.5000000000119762 0  25 0.3000000000126564 0  25 0.1000000000131926 0  25 -0.09999999998679243 0  25 -0.2999999999874587 0  25 -0.4999999999878586 0  25 -0.6999999999884441 0  25 -0.899999999988804 0  25 -1.099999999989427 0  25 -1.299999999989749 0  25 -1.499999999990411 0  25 -1.69999999999073 0  25 -1.899999999991396 0  25 -2.099999999991715 0  25 -2.299999999992381 0  25 -2.499999999993047 0  25 -2.699999999993714 0  25 -2.899999999994227 0  25 -3.099999999994698 0  25 -3.299999999994673 0  25 -3.499999999995339 0  25 -3.699999999996004 0  25 -3.89999999999667 0  25 -4.099999999997335 0  25 -4.299999999998002 0  25 -4.499999999998668 0  25 -4.699999999999335 0  24.80000000000034 -4.9 0  24.60000000000068 -4.9 0  24.40000000000101 -4.9 0  24.20000000000135 -4.9 0  24.00000000000169 -4.9 0  23.80000000000203 -4.9 0  23.60000000000237 -4.9 0  23.40000000000271 -4.9 0  23.20000000000304 -4.9 0  23.00000000000338 -4.9 0  22.80000000000372 -4.9 0  22.60000000000406 -4.9 0  22.40000000000439 -4.9 0  22.20000000000473 -4.9 0  22.00000000000507 -4.9 0  21.80000000000541 -4.9 0  21.60000000000575 -4.9 0  21.40000000000608 -4.9 0  21.20000000000642 -4.9 0  21.00000000000676 -4.9 0  20.8000000000071 -4.9 0  20.60000000000744 -4.9 0  20.40000000000777 -4.9 0  20.20000000000811 -4.9 0  20.00000000000845 -4.9 0  19.80000000000879 -4.9 0  19.60000000000912 -4.9 0  19.40000000000946 -4.9 0  19.2000000000098 -4.9 0  19.00000000001039 -4.9 0  18.80000000001108 -4.9 0  18.60000000001231 -4.9 0  18.40000000001371 -4.9 0  18.2000000000154 -4.9 0  18.00000000001716 -4.9 0  17.80000000001892 -4.9 0  17.60000000002067 -4.9 0  17.40000000002243 -4.9 0  17.20000000002419 -4.9 0  17.00000000002595 -4.9 0  16.80000000002771 -4.9 0  16.60000000002947 -4.9 0  16.40000000003123 -4.9 0  16.20000000003299 -4.9 0  16.00000000003472 -4.9 0  15.80000000003612 -4.9 0  15.60000000003748 -4.9 0  15.40000000003853 -4.9 0  15.20000000003958 -4.9 0  15.00000000004063 -4.9 0  14.80000000004168 -4.9 0  14.60000000004273 -4.9 0  14.40000000004377 -4.9 0  14.20000000004482 -4.9 0  14.00000000004587 -4.9 0  13.80000000004692 -4.9 0  13.60000000004797 -4.9 0  13.40000000004902 -4.9 0  13.20000000005007 -4.9 0  13.00000000005111 -4.9 0  12.80000000005216 -4.9 0  12.60000000005321 -4.9 0  12.40000000005426 -4.9 0  12.20000000005531 -4.9 0  12.00000000005636 -4.9 0  11.80000000005741 -4.9 0  11.60000000005846 -4.9 0  11.4000000000595 -4.9 0  11.20000000006055 -4.9 0  11.0000000000616 -4.9 0  10.80000000006265 -4.9 0  10.6000000000637 -4.9 0  10.40000000006475 -4.9 0  10.2000000000658 -4.9 0  10.00000000006684 -4.9 0  9.800000000067891 -4.9 0  9.60000000006894 -4.9 0  9.400000000069989 -4.9 0  9.200000000070727 -4.9 0  9.00000000007142 -4.9 0  8.800000000071787 -4.9 0  8.600000000072125 -4.9 0  8.400000000072467 -4.9 0  8.200000000072805 -4.9 0  8.000000000073143 -4.9 
[...]
<PointData  Vectors="f_7"> 
<DataArray  type="Float64"  Name="f_7"  NumberOfComponents="3" format="ascii">3.0849096818723603e-04 7.9500000000000003e-04 0.0000000000000000e+00  -3.0839668556378543e-04 7.9500000000000003e-04 0.0000000000000000e+00  0.0000000000000000e+00 0.0000000000000000e+00 0.0000000000000000e+00  0.0000000000000000e+00 0.0000000000000000e+00 0.0000000000000000e+00  4.3116813749503618e-05 3.9656433873321988e-04 0.0000000000000000e+00  -4.3810846231057804e-05 3.8586460369669342e-04 0.0000000000000000e+00  3.0368875122586893e-04 7.9500000000000003e-04 0.0000000000000000e+00  2.9885696286883595e-04 7.9500000000000003e-04 0.0000000000000000e+00  2.9399980299431500e-04 7.9500000000000003e-04 0.0000000000000000e+00  2.8905738465315347e-04 7.9500000000000003e-04 0.0000000000000000e+00  2.8409311099551125e-04 7.9500000000000003e-04 0.0000000000000000e+00  2.7906509865344495e-04 7.9500000000000003e-04 0.0000000000000000e+00  2.7400772201666569e-04 7.9500000000000003e-04 0.0000000000000000e+00  2.6889587144616475e-04 7.9500000000000003e-04 0.0000000000000000e+00  2.6376932364873792e-04 7.9500000000000003e-04 0.0000000000000000e+00  2.5859525211211111e-04 7.9500000000000003e-04 0.0000000000000000e+00  2.5339262330681145e-04 7.9500000000000003e-04 0.0000000000000000e+00  2.4818348410312908e-04 7.9500000000000003e-04 0.0000000000000000e+00  2.4291877524604833e-04 7.9500000000000003e-04 0.0000000000000000e+00  2.3765211828735464e-04 7.9500000000000003e-04 0.0000000000000000e+00  2.3237505767499490e-04 7.9500000000000003e-04 0.0000000000000000e+00  2.2709014418520373e-04 7.9500000000000003e-04 0.0000000000000000e+00  2.2176615625922307e-04 7.9500000000000003e-04 0.0000000000000000e+00  2.1644949150761517e-04 7.9500000000000003e-04 0.0000000000000000e+00  2.1113919354288468e-04 7.9500000000000003e-04 0.0000000000000000e+00  2.0580351584237989e-04 7.9500000000000003e-04 0.0000000000000000e+00  2.0047502397947721e-04 7.9500000000000003e-04 0.0000000000000000e+00  1.9515014206806738e-04 7.9500000000000003e-04 0.0000000000000000e+00  1.8983514904514294e-04 7.9500000000000003e-04 0.0000000000000000e+00  1.8453295550975642e-04 7.9500000000000003e-04 0.0000000000000000e+00  1.7921046229335628e-04 7.9500000000000003e-04 0.0000000000000000e+00  1.7390446762988906e-04 7.9500000000000003e-04 0.0000000000000000e+00  1.6861359856980090e-04 7.9500000000000003e-04 0.0000000000000000e+00  1.6332734621722693e-04 7.9500000000000003e-04 0.0000000000000000e+00  1.5805147421937184e-04 7.9500000000000003e-04 0.0000000000000000e+00  1.5278714273284005e-04 7.9500000000000003e-04 0.0000000000000000e+00  1.4752697827642020e-04 7.9500000000000003e-04 0.0000000000000000e+00  1.4227664022749959e-04 7.9500000000000003e-04 0.0000000000000000e+00  1.3703707281672220e-04 7.9500000000000003e-04 0.0000000000000000e+00  1.3180871106668377e-04 7.9500000000000003e-04 0.0000000000000000e+00  1.2657274374415619e-04 7.9500000000000003e-04 0.0000000000000000e+00  1.2134757813031545e-04 7.9500000000000003e-04 0.0000000000000000e+00  1.1612204195197619e-04 7.9500000000000003e-04 0.0000000000000000e+00  1.1089929344458602e-04 7.9500000000000003e-04 0.0000000000000000e+00  1.0566938348321875e-04 7.9500000000000003e-04 0.0000000000000000e+00  1.0043695824941824e-04 7.9500000000000003e-04 0.0000000000000000e+00  9.5198518502039636e-05 7.9500000000000003e-04 0.0000000000000000e+00  8.9948383309369664e-05 7.9500000000000003e-04 0.0000000000000000e+00  8.4683281815485419e-05 7.9500000000000003e-04 0.0000000000000000e+00  7.9401155487212807e-05 7.9500000000000003e-04 0.0000000000000000e+00  7.4097410908443250e-05 7.9500000000000003e-04 0.0000000000000000e+00  6.8769497307656080e-05 7.9500000000000003e-04 0.0000000000000000e+00  6.3416407725590978e-05 7.9500000000000003e-04 0.0000000000000000e+00  5.8029015312355004e-05 7.9500000000000003e-04 0.0000000000000000e+00  5.2604963604465792e-05 7.9500000000000003e-04 0.0000000000000000e+00  4.7148430957905758e-05 7.9500000000000003e-04 0.0000000000000000e+00  4.1648782672934030e-05 7.9500000000000003e-04 0.0000000000000000e+00  3.6108099792738594e-05 7.9500000000000003e-04 0.0000000000000000e+00  3.0524162804367238e-05 7.9500000000000003e-04 0.0000000000000000e+00  2.4880231835884893e-05 7.9500000000000003e-04 0.0000000000000000e+00  1.9214199030301974e-05 7.9500000000000003e-04 0.0000000000000000e+00  1.3498989628419767e-05 7.9500000000000003e-04 0.0000000000000000e+00  7.7435097104553466e-06 7.9500000000000003e-04 0.0000000000000000e+00  1.9465928129720689e-06 7.9500000000000003e-04 0.0000000000000000e+00  -3.8725329045145366e-06 7.9500000000000003e-04 0.0000000000000000e+00  -9.7225443538933326e-06 7.9500000000000003e-04 0.0000000000000000e+00  -1.5546489162093030e-05 7.9500000000000003e-04 0.0000000000000000e+00  -2.1370146130903822e-05 7.9500000000000003e-04 0.0000000000000000e+00  -2.7166459564591894e-05 7.9500000000000003e-04 0.0000000000000000e+00  -3.2925383658912000e-05 7.9500000000000003e-04 0.0000000000000000e+00  -3.8621374759952124e-05 7.9500000000000003e-04 0.0000000000000000e+00  -4.4181906448295841e-05 7.9500000000000003e-04 0.0000000000000000e+00  -4.9606440120097958e-05 7.9500000000000003e-04 0.0000000000000000e+00  -5.4816983128917839e-05 7.9500000000000003e-04 0.0000000000000000e+00  -5.9864451168267562e-05 7.9500000000000003e-04 0.0000000000000000e+00  -6.4730180102758281e-05 7.9500000000000003e-04 0.0000000000000000e+00  -6.9285094943398573e-05 7.9500000000000003e-04 0.0000000000000000e+00  -7.3468188129755056e-05 7.9500000000000003e-04 0.0000000000000000e+00  -7.7317112622382915e-05 7.9500000000000003e-04 0.0000000000000000e+00  -8.0870219879657210e-05 7.9500000000000003e-04 0.0000000000000000e+00  -8.3929732892528921e-05 7.9500000000000003e-04 0.0000000000000000e+00  -8.6641502397404060e-05 7.9500000000000003e-04 0.0000000000000000e+00  -8.8911538962411772e-05 7.9500000000000003e-04 0.0000000000000000e+00  -9.0700688669496479e-05 7.9500000000000003e-04 0.0000000000000000e+00  -9.2074528423406621e-05 7.9500000000000003e-04 0.0000000000000000e+00  -9.3049274892189737e-05 7.9500000000000003e-04 0.0000000000000000e+00  -9.3595943785354949e-05 7.9500000000000003e-04 0.0000000000000000e+00  -9.3727533050112492e-05 7.9500000000000003e-04 0.0000000000000000e+00  -9.3461710337928240e-05 7.9500000000000003e-04 0.0000000000000000e+00  -9.2831868277372926e-05 7.9500000000000003e-04 0.0000000000000000e+00  -9.1914477481640084e-05 7.9500000000000003e-04 0.0000000000000000e+00  -9.0720138385338344e-05 7.9500000000000003e-04 0.0000000000000000e+00  -8.9221899201314393e-05 7.9500000000000003e-04 0.0000000000000000e+00  -8.7464666976677408e-05 7.9500000000000003e-04 0.0000000000000000e+00  -8.5545347478483509e-05 7.9500000000000003e-04 0.0000000000000000e+00  -8.3455660803619011e-05 7.9500000000000003e-04 0.0000000000000000e+00  -8.1221335587985081e-05 7.9500000000000003e-04 0.0000000000000000e+00  -7.8823506251006448e-05 7.9500000000000003e-04 0.0000000000000000e+00  -7.6345830374031635e-05 7.9500000000000003e-04 0.0000000000000000e+00  -7.3790624979013783e-05 7.9500000000000003e-04 0.0000000000000000e+00  -7.1187630704437578e-05 7.9500000000000003e-04 0.0000000000000000e+00  -6.8511611637296483e-05 7.9500000000000003e-04 0.0000000000000000e+00  -6.5827404557075846e-05 7.9500000000000003e-04 0.0000000000000000e+00  -6.3133967210709399e-05 7.9500000000000003e-04 0.0000000000000000e+00  -6.0431693288198007e-05 7.9500000000000003e-04 0.0000000000000000e+00  -5.7734986314975710e-05 7.9500000000000003e-04 0.0000000000000000e+00  -5.5059617951050284e-05 7.9500000000000003e-04 0.0000000000000000e+00  -5.2412493865572710e-05 7.9500000000000003e-04 0.0000000000000000e+00  -4.9769215572981867e-05 7.9500000000000003e-04 0.0000000000000000e+00  -4.7170799287414355e-05 7.9500000000000003e-04 0.0000000000000000e+00  -4.4609696428174413e-05 7.9500000000000003e-04 0.0000000000000000e+00  -4.2089480768283314e-05 7.9500000000000003e-04 0.0000000000000000e+00  -3.9612936646802592e-05 7.9500000000000003e-04 0.0000000000000000e+00  -3.7169216433124192e-05 7.9500000000000003e-04 0.0000000000000000e+00  -3.4769023719540911e-05 7.9500000000000003e-04 0.0000000000000000e+00  -3.2412273380657082e-05 7.9500000000000003e-04 0.0000000000000000e+00  -3.0095160365406961e-05 7.9500000000000003e-04 0.0000000000000000e+00  -2.7819012976543833e-05 7.9500000000000003e-04 0.0000000000000000e+00  -2.5570338835421327e-05 7.9500000000000003e-04 0.0000000000000000e+00  -2.3360932046403124e-05 7.9500000000000003e-04 0.0000000000000000e+00  -2.1182121910770051e-05 7.9500000000000003e-04 0.0000000000000000e+00  -1.9035521299260710e-05 7.9500000000000003e-04 0.0000000000000000e+00  -1.6914606904491531e-05 7.9500000000000003e-04 0.0000000000000000e+00  -1.4820490942173171e-05 7.9500000000000003e-04 0.0000000000000000e+00  -1.2748992835250469e-05 7.9500000000000003e-04 0.0000000000000000e+00  -1.0697381037874235e-05 7.9500000000000003e-04 0.0000000000000000e+00  -8.6638556102096083e-06 7.9500000000000003e-04 0.0000000000000000e+00  -6.6453239011914522e-06 7.9500000000000003e-04 0.0000000000000000e+00  -4.6387307637450087e-06 7.9500000000000003e-04 0.0000000000000000e+00  -2.6403453900540844e-06 7.9500000000000003e-04 0.0000000000000000e+00  -6.4933285386141613e-07 7.9500000000000003e-04 0.0000000000000000e+00  1.3370286621841709e-06 7.9500000000000003e-04 0.0000000000000000e+00  3.3229945133296175e-06 7.9500000000000003e-04 0.0000000000000000e+00  5.3104295987095900e-06 7.9500000000000003e-04 0.0000000000000000e+00  7.3029403388717413e-06 7.9500000000000003e-04 0.0000000000000000e+00  9.3018255811018201e-06 7.9500000000000003e-04 0.0000000000000000e+00  1.1312138672878862e-05 7.9500000000000003e-04 0.0000000000000000e+00  1.3336846090534419e-05 7.9500000000000003e-04 0.0000000000000000e+00  1.5380492605732594e-05 7.9500000000000003e-04 0.0000000000000000e+00  1.7445542802812982e-05 7.9500000000000003e-04 0.0000000000000000e+00  1.9530724499201878e-05 7.9500000000000003e-04 0.0000000000000000e+00  2.1643766373357650e-05 7.9500000000000003e-04 0.0000000000000000e+00  2.3787551512143921e-05 7.9500000000000003e-04 0.0000000000000000e+00  2.5964857295741745e-05 7.9500000000000003e-04 0.0000000000000000e+00  2.8177559282319744e-05 7.9500000000000003e-04 0.0000000000000000e+00  3.0430353133881964e-05 7.9500000000000003e-04 0.0000000000000000e+00  3.2720387320319167e-05 7.9500000000000003e-04 0.0000000000000000e+00  3.5057204305292404e-05 7.9500000000000003e-04 0.0000000000000000e+00  3.7439913860074391e-05 7.9500000000000003e-04 0.0000000000000000e+00  3.9857150372195362e-05 7.9500000000000003e-04 0.0000000000000000e+00  4.2326136395029929e-05 7.9500000000000003e-04 0.0000000000000000e+00  4.4840870898222947e-05 7.9500000000000003e-04 0.0000000000000000e+00  4.7397044172630858e-05 7.9500000000000003e-04 0.0000000000000000e+00  4.9995514055641273e-05 7.9500000000000003e-04 0.0000000000000000e+00  5.2629035970186682e-05 7.9500000000000003e-04 0.0000000000000000e+00  5.5318831194586366e-05 7.9500000000000003e-04 0.0000000000000000e+00  5.8008865510508835e-05 7.9500000000000003e-04 0.0000000000000000e+00  6.0727359521267307e-05 7.9500000000000003e-04 0.0000000000000000e+00  6.3463978118794793e-05 7.9500000000000003e-04 0.0000000000000000e+00  6.6211811600695578e-05 7.9500000000000003e-04 0.0000000000000000e+00  6.8929306337503667e-05 7.9500000000000003e-04 0.0000000000000000e+00  7.1630810930854358e-05 7.9500000000000003e-04 0.0000000000000000e+00  7.4286526869679869e-05 7.9500000000000003e-04 0.0000000000000000e+00  7.6883458302685653e-05 7.9500000000000003e-04 0.0000000000000000e+00  7.9408062810952832e-05 7.9500000000000003e-04 0.0000000000000000e+00  8.1787085248401838e-05 7.9500000000000003e-04 0.0000000000000000e+00  8.4029091256217756e-05 7.9500000000000003e-04 0.0000000000000000e+00  8.6074638285290808e-05 7.9500000000000003e-04 0.0000000000000000e+00  8.7986664490974771e-05 7.9500000000000003e-04 0.0000000000000000e+00  8.9634651998920134e-05 7.9500000000000003e-04 0.0000000000000000e+00  9.0999179639378284e-05 7.9500000000000003e-04 0.0000000000000000e+00  9.2104943135118476e-05 7.9500000000000003e-04 0.0000000000000000e+00  9.2830300388886878e-05 7.9500000000000003e-04 0.0000000000000000e+00  9.3302925252619024e-05 7.9500000000000003e-04 0.0000000000000000e+00  9.3372585577835245e-05 7.9500000000000003e-04 0.0000000000000000e+00  9.2967077103847822e-05 7.9500000000000003e-04 0.0000000000000000e+00  9.2101975872305902e-05 7.9500000000000003e-04 0.0000000000000000e+00  9.0841943396395135e-05 7.9500000000000003e-04 0.0000000000000000e+00  8.9106814648163906e-05 7.9500000000000003e-04 0.0000000000000000e+00  8.6903596769009037e-05 7.9500000000000003e-04 0.0000000000000000e+00  8.4283315086949010e-05 7.9500000000000003e-04 0.0000000000000000e+00  8.1199643579613504e-05 7.9500000000000003e-04 0.0000000000000000e+00  7.7862639017732400e-05 7.9500000000000003e-04 0.0000000000000000e+00  7.3996854509467838e-05 7.9500000000000003e-04 0.0000000000000000e+00  6.9797335297310854e-05 7.9500000000000003e-04 0.0000000000000000e+00  6.5284641367512885e-05 7.9500000000000003e-04 0.0000000000000000e+00  6.0475304999100519e-05 7.9500000000000003e-04 0.0000000000000000e+00  5.5452542677309648e-05 7.9500000000000003e-04 0.0000000000000000e+00  5.0168349951521928e-05 7.9500000000000003e-04 0.0000000000000000e+00  4.4750287274638448e-05 7.9500000000000003e-04 0.0000000000000000e+00  3.9154228316404626e-05 7.9500000000000003e-04 0.0000000000000000e+00  3.3466698233127093e-05 7.9500000000000003e-04 0.0000000000000000e+00  2.7704896403126201e-05 7.9500000000000003e-04 0.0000000000000000e+00  2.1896260486257020e-05 7.9500000000000003e-04 0.0000000000000000e+00  1.6032473000488567e-05 7.9500000000000003e-04 0.0000000000000000e+00  1.0174915389412072e-05 7.9500000000000003e-04 0.0000000000000000e+00  4.3136791407698894e-06 7.9500000000000003e-04 0.0000000000000000e+00  -1.5270068618052816e-06 7.9500000000000003e-04 0.0000000000000000e+00  -7.3403783276598928e-06 7.9500000000000003e-04 0.0000000000000000e+00  -1.3118358232394424e-05 7.9500000000000003e-04 0.0000000000000000e+00  -1.8857042056518227e-05 7.9500000000000003e-04 0.0000000000000000e+00  -2.4551343417560003e-05 7.9500000000000003e-04 0.0000000000000000e+00  -3.0196973834956594e-05 7.9500000000000003e-04 0.0000000000000000e+00  -3.5806208304114452e-05 7.9500000000000003e-04 0.0000000000000000e+00  -4.1364709373173706e-05 7.9500000000000003e-04 0.0000000000000000e+00  -4.6875240457367553e-05 7.9500000000000003e-04 0.0000000000000000e+00  -5.2352539835885666e-05 7.9500000000000003e-04 0.0000000000000000e+00  -5.7784708477623764e-05 7.9500000000000003e-04 0.0000000000000000e+00  -6.3184733816417770e-05 7.9500000000000003e-04 0.0000000000000000e+00  -6.8551788889224347e-05 7.9500000000000003e-04 0.0000000000000000e+00  -7.3890746709367121e-05 7.9500000000000003e-04 0.0000000000000000e+00  -7.9204324708905362e-05 7.9500000000000003e-04 0.0000000000000000e+00  -8.4493069543779351e-05 7.9500000000000003e-04 0.0000000000000000e+00  -8.9765967736892308e-05 7.9500000000000003e-04 0.0000000000000000e+00  -9.5024902136969216e-05 7.9500000000000003e-04 0.0000000000000000e+00  -1.0027354038480618e-04 7.9500000000000003e-04 0.0000000000000000e+00  -1.0551351145999661e-04 7.9500000000000003e-04 0.0000000000000000e+00  -1.1074282253627368e-04 7.9500000000000003e-04 0.0000000000000000e+00  -1.1597137895521842e-04 7.9500000000000003e-04 0.0000000000000000e+00  -1.2120146477002289e-04 7.9500000000000003e-04 0.0000000000000000e+00  -1.2643667246949392e-04 7.9500000000000003e-04 0.0000000000000000e+00  -1.3166458153519294e-04 7.9500000000000003e-04 0.0000000000000000e+00  -1.3690344085178280e-04 7.9500000000000003e-04 0.0000000000000000e+00  -1.4215244565990133e-04 7.9500000000000003e-04 0.0000000000000000e+00  -1.4739917240199978e-04 7.9500000000000003e-04 0.0000000000000000e+00  -1.5265895794877959e-04 7.9500000000000003e-04 0.0000000000000000e+00  -1.5792930290091180e-04 7.9500000000000003e-04 0.0000000000000000e+00  -1.6321174714997852e-04 7.9500000000000003e-04 0.0000000000000000e+00  -1.6850025949404182e-04 7.9500000000000003e-04 0.0000000000000000e+00  -1.7379172685304492e-04 7.9500000000000003e-04 0.0000000000000000e+00  -1.7909382244110569e-04 7.9500000000000003e-04 0.0000000000000000e+00  -1.8440819296263789e-04 7.9500000000000003e-04 0.0000000000000000e+00  -1.8972496901534168e-04 7.9500000000000003e-04 0.0000000000000000e+00  -1.9504548303964851e-04 7.9500000000000003e-04 0.0000000000000000e+00  -2.0036940943910222e-04 7.9500000000000003e-04 0.0000000000000000e+00  -2.0569890260216047e-04 7.9500000000000003e-04 0.0000000000000000e+00  -2.1102146893587444e-04 7.9500000000000003e-04 0.0000000000000000e+00  -2.1634743513508333e-04 7.9500000000000003e-04 0.0000000000000000e+00  -2.2165930031546046e-04 7.9500000000000003e-04 0.0000000000000000e+00  -2.2697080011417284e-04 7.9500000000000003e-04 0.0000000000000000e+00  -2.3227306500030699e-04 7.9500000000000003e-04 0.0000000000000000e+00  -2.3755407296277255e-04 7.9500000000000003e-04 0.0000000000000000e+00  -2.4282093959173347e-04 7.9500000000000003e-04 0.0000000000000000e+00  -2.4807033320260020e-04 7.9500000000000003e-04 0.0000000000000000e+00  -2.5329525962449297e-04 7.9500000000000003e-04 0.0000000000000000e+00  -2.5848941360036260e-04 7.9500000000000003e-04 0.0000000000000000e+00  -2.6366833055877349e-04 7.9500000000000003e-04 0.0000000000000000e+00  -2.6880698556062721e-04 7.9500000000000003e-04 0.0000000000000000e+00  -2.7390862379375711e-04 7.9500000000000003e-04 0.0000000000000000e+00  -2.7897103091479284e-04 7.9500000000000003e-04 0.0000000000000000e+00  -2.8398612476942235e-04 7.9500000000000003e-04 0.0000000000000000e+00  -2.8896102227792827e-04 7.9500000000000003e-04 0.0000000000000000e+00  -2.9389576087611056e-04 7.9500000000000003e-04 0.0000000000000000e+00  -2.9876022011596448e-04 7.9500000000000003e-04 0.0000000000000000e+00  -3.0359208774897377e-04 7.9500000000000003e-04 0.0000000000000000e+00  -3.0830510967425675e-04 7.8073740608782655e-04 0.0000000000000000e+00  -3.0805071189502685e-04 7.6647254161940018e-04 0.0000000000000000e+00  -3.0769216943136866e-04 7.5220558315071005e-04 0.0000000000000000e+00  -3.0713671990748736e-04 7.3793647149940919e-04 0.0000000000000000e+00  -3.0644146275967375e-04 7.2368527006165864e-04 0.0000000000000000e+00  -3.0555650546451791e-04 7.0940118869661760e-04 0.0000000000000000e+00  -3.0453275853184366e-04 6.9514364861420895e-04 0.0000000000000000e+00  -3.0335251213484159e-04 6.8086174557516763e-04 0.0000000000000000e+00  -3.0199227382489939e-04 6.6658118712766262e-04 0.0000000000000000e+00  -3.0046365069931225e-04 6.5231899544467595e-04 0.0000000000000000e+00  -2.9876733091165807e-04 6.3802364147344439e-04 0.0000000000000000e+00  -2.9689580915418217e-04 6.2373413294810373e-04 0.0000000000000000e+00  -2.9485267207541124e-04 6.0942300714548808e-04 0.0000000000000000e+00  -2.9261800326523614e-04 5.9513821113615505e-04 0.0000000000000000e+00  -2.9020995971289172e-04 5.8080257546886034e-04 0.0000000000000000e+00  -2.8760345702684946e-04 5.6644646707534484e-04 0.0000000000000000e+00  -2.8480059044731787e-04 5.5210816154478888e-04 0.0000000000000000e+00  -2.8179957104112585e-04 5.3772035369038882e-04 0.0000000000000000e+00  -2.7858633476860698e-04 5.2334525181354943e-04 0.0000000000000000e+00  -2.7516252829217435e-04 5.0893263689134611e-04 0.0000000000000000e+00  -2.7152810774402062e-04 4.9445441513063740e-04 0.0000000000000000e+00  -2.6765551196137444e-04 4.8000289041260399e-04 0.0000000000000000e+00  -2.6355647454539931e-04 4.6546705755452908e-04 0.0000000000000000e+00  -2.5920055053962166e-04 4.5092078365564043e-04 0.0000000000000000e+00  -2.5461639243850486e-04 4.3629572937695359e-04 0.0000000000000000e+00  -2.4974805157337051e-04 4.2166607430307098e-04 0.0000000000000000e+00  -2.4463757228569867e-04 4.0690733339838369e-04 0.0000000000000000e+00  