<?xml version="1.0"?>
<VTKFile type="UnstructuredGrid"  version="0.1"  >
<UnstructuredGrid>
<Piece  NumberOfPoints="15540" NumberOfCells="30546">
<Points>
<DataArray  type="Float64"  NumberOfComponents="3"  format="ascii">0 0 0  -0.5 -0.5 0  0.5 -0.5 0  0.5 0 0  0.5 0.5 0  -0.5 0.5 0  -0.5 0.0001 0  -0.5 -0.0001 0  0.5 0.1 0  0.5 -0.1 0  -0.5 -0.1 0  -0.5 0.1 0  -0.4900000000000277 -0.5 0  -0.4800000000000555 -0.5 0  -0.4700000000000832 -0.5 0  -0.4600000000001109 -0.5 0  -0.4500000000001387 -0.5 0  -0.4400000000001664 -0.5 0  -0.4300000000001942 -0.5 0  -0.4200000000002219 -0.5 0  -0.4100000000002497 -0.5 0  -0.4000000000002774 -0.5 0  -0.3900000000003052 -0.5 0  -0.3800000000003328 -0.5 0  -0.3700000000003606 -0.5 0  -0.3600000000003883 -0.5 0  -0.3500000000004161 -0.5 0  -0.3400000000004438 -0.5 0  -0.3300000000004716 -0.5 0  -0.3200000000004993 -0.5 0  -0.3100000000005271 -0.5 0  -0.3000000000005548 -0.5 0  -0.2900000000005825 -0.5 0  -0.2800000000006103 -0.5 0  -0.2700000000006381 -0.5 0  -0.2600000000006658 -0.5 0  -0.2500000000006935 -0.5 0  -0.2400000000007212 -0.5 0  -0.230000000000749 -0.5 0  -0.2200000000007767 -0.5 0  -0.2100000000008044 -0.5 0  -0.2000000000008322 -0.5 0  -0.19000000000086 -0.5 0  -0.1800000000008877 -0.5 0  -0.1700000000009154 -0.5 0  -0.1600000000009431 -0.5 0  -0.1500000000009709 -0.5 0  -0.1400000000009986 -0.5 0  -0.1300000000010264 -0.5 0  -0.1200000000010541 -0.5 0  -0.1100000000010818 -0.5 0  -0.1000000000011096 -0.5 0  -0.09000000000113734 -0.5 0  -0.08000000000116503 -0.5 0  -0.07000000000119283 -0.5 0  -0.06000000000122058 -0.5 0  -0.05000000000124827 -0.5 0  -0.04000000000127607 -0.5 0  -0.03000000000130376 -0.5 0  -0.02000000000133151 -0.5 0  -0.01000000000135925 -0.5 0  -1.376121439022882e-12 -0.5 0  0.009999999998640763 -0.5 0  0.01999999999866864 -0.5 0  0.02999999999869629 -0.5 0  0.03999999999872406 -0.5 0  0.04999999999875182 -0.5 0  0.05999999999877947 -0.5 0  0.06999999999880724 -0.5 0  0.079999999998835 -0.5 0  0.08999999999886266 -0.5 0  0.09999999999889042 -0.5 0  0.1099999999989182 -0.5 0  0.1199999999989459 -0.5 0  0.1299999999989737 -0.5 0  0.1399999999990014 -0.5 0  0.1499999999990291 -0.5 0  0.1599999999990568 -0.5 0  0.1699999999990847 -0.5 0  0.1799999999991124 -0.5 0  0.1899999999991401 -0.5 0  0.1999999999991678 -0.5 0  0.2099999999991955 -0.5 0  0.2199999999992234 -0.5 0  0.2299999999992511 -0.5 0  0.2399999999992788 -0.5 0  0.2499999999993066 -0.5 0  0.2599999999993342 -0.5 0  0.269999999999362 -0.5 0  0.2799999999993897 -0.5 0  0.2899999999994175 -0.5 0  0.2999999999994452 -0.5 0  0.3099999999994729 -0.5 0  0.3199999999995007 -0.5 0  0.3299999999995284 -0.5 0  0.3399999999995562 -0.5 0  0.3499999999995839 -0.5 0  0.3599999999996116 -0.5 0  0.3699999999996393 -0.5 0  0.379999999999667 -0.5 0  0.3899999999996949 -0.5 0  0.3999999999997226 -0.5 0  0.4099999999997503 -0.5 0  0.419999999999778 -0.5 0  0.4299999999998058 -0.5 0  0.4399999999998336 -0.5 0  0.4499999999998613 -0.5 0  0.4599999999998891 -0.5 0  0.4699999999999167 -0.5 0  0.4799999999999445 -0.5 0  0.4899999999999722 -0.5 0  0.5 -0.4902110204681464 0  0.5 -0.4804459958734807 0  0.5 -0.4707048677450883 0  0.5 -0.4609875815766065 0  0.5 -0.4512940759251849 0  0.5 -0.4416242912883993 0  0.5 -0.4319781678689807 0  0.5 -0.4223556545383647 0  0.5 -0.4127566896324213 0  0.5 -0.4031812128200121 0  0.5 -0.3936291733057916 0  0.5 -0.3841005081172659 0  0.5 -0.3745951585781932 0  0.5 -0.3651130778999337 0  0.5 -0.3556541993788045 0  0.5 -0.3462184677228392 0  0.5 -0.3368058273705318 0  0.5 -0.3274162224888609 0  0.5 -0.3180495969712945 0  0.5 -0.3087058944357755 0  0.5 -0.299385058222682 0  0.5 -0.2900870313927414 0  0.5 -0.2808117567250807 0  0.5 -0.2715591844628491 0  0.5 -0.2623292564012653 0  0.5 -0.253121909553727 0  0.5 -0.2439371050851549 0  0.5 -0.2347747685524501 0  0.5 -0.2256348634421331 0  0.5 -0.2165173209784076 0  0.5 -0.207422087829958 0  0.5 -0.1983491207029381 0  0.5 -0.1892983550950482 0  0.5 -0.1802697378305253 0  0.5 -0.1712632154965152 0  0.5 -0.1622787344187354 0  0.5 -0.1533162406595534 0  0.5 -0.1443756800160514 0  0.5 -0.1354569980180493 0  0.5 -0.1265601399261414 0  0.5 -0.1176850622761093 0  0.5 -0.1088317009011999 0  0.5 -0.09166666666668973 0  0.5 -0.08333333333337943 0  0.5 -0.07500000000006915 0  0.5 -0.06666666666675886 0  0.5 -0.05833333333344858 0  0.5 -0.05000000000013693 0  0.5 -0.04166666666678191 0  0.5 -0.03333333333342643 0  0.5 -0.02500000000006916 0  0.5 -0.01666666666671188 0  0.5 -0.00833333333335548 0  0.5 0.008333333333318314 0  0.5 0.01666666666663358 0  0.5 0.02499999999994162 0  0.5 0.03333333333325101 0  0.5 0.04166666666655769 0  0.5 0.04999999999986843 0  0.5 0.05833333333322258 0  0.5 0.06666666666657715 0  0.5 0.07499999999993352 0  0.5 0.08333333333328992 0  0.5 0.09166666666664541 0  0.5 0.1088317009011616 0  0.5 0.1176850622760307 0  0.5 0.1265601399260203 0  0.5 0.1354569980178909 0  0.5 0.1443756800158549 0  0.5 0.153316240659315 0  0.5 0.1622787344184454 0  0.5 0.1712632154961752 0  0.5 0.1802697378301332 0  0.5 0.1892983550946039 0  0.5 0.1983491207024433 0  0.5 0.2074220878294123 0  0.5 0.216517320977811 0  0.5 0.2256348634414833 0  0.5 0.2347747685517479 0  0.5 0.2439371050844009 0  0.5 0.2531219095529224 0  0.5 0.2623292564004089 0  0.5 0.2715591844619371 0  0.5 0.2808117567241139 0  0.5 0.290087031391723 0  0.5 0.2993850582216101 0  0.5 0.3087058944347426 0  0.5 0.3180495969703129 0  0.5 0.3274162224879299 0  0.5 0.3368058273696494 0  0.5 0.3462184677220051 0  0.5 0.3556541993780186 0  0.5 0.3651130778991989 0  0.5 0.3745951585775107 0  0.5 0.3841005081166359 0  0.5 0.3936291733052134 0  0.5 0.4031812128194852 0  0.5 0.412756689631945 0  0.5 0.4223556545379392 0  0.5 0.431978167868607 0  0.5 0.4416242912880781 0  0.5 0.4512940759249164 0  0.5 0.4609875815763912 0  0.5 0.4707048677449264 0  0.5 0.4804459958733726 0  0.5 0.4902110204680924 0  0.4900000000000277 0.5 0  0.4800000000000555 0.5 0  0.4700000000000832 0.5 0  0.4600000000001109 0.5 0  0.4500000000001387 0.5 0  0.4400000000001664 0.5 0  0.4300000000001942 0.5 0  0.4200000000002219 0.5 0  0.4100000000002497 0.5 0  0.4000000000002774 0.5 0  0.3900000000003052 0.5 0  0.3800000000003328 0.5 0  0.3700000000003606 0.5 0  0.3600000000003883 0.5 0  0.3500000000004161 0.5 0  0.3400000000004438 0.5 0  0.3300000000004716 0.5 0  0.3200000000004993 0.5 0  0.3100000000005271 0.5 0  0.3000000000005548 0.5 0  0.2900000000005825 0.5 0  0.2800000000006103 0.5 0  0.2700000000006381 0.5 0  0.2600000000006658 0.5 0  0.2500000000006935 0.5 0  0.2400000000007212 0.5 0  0.230000000000749 0.5 0  0.2200000000007767 0.5 0  0.2100000000008044 0.5 0  0.2000000000008322 0.5 0  0.19000000000086 0.5 0  0.1800000000008877 0.5 0  0.1700000000009154 0.5 0  0.1600000000009431 0.5 0  0.1500000000009709 0.5 0  0.1400000000009986 0.5 0  0.1300000000010264 0.5 0  0.1200000000010541 0.5 0  0.1100000000010818 0.5 0  0.1000000000011096 0.5 0  0.09000000000113734 0.5 0  0.08000000000116503 0.5 0  0.07000000000119283 0.5 0  0.06000000000122058 0.5 0  0.05000000000124827 0.5 0  0.04000000000127607 0.5 0  0.03000000000130376 0.5 0  0.02000000000133151 0.5 0  0.01000000000135925 0.5 0  1.376121439022882e-12 0.5 0  -0.009999999998640763 0.5 0  -0.01999999999866864 0.5 0  -0.02999999999869629 0.5 0  -0.03999999999872406 0.5 0  -0.04999999999875182 0.5 0  -0.05999999999877947 0.5 0  -0.06999999999880724 0.5 0  -0.079999999998835 0.5 0  -0.08999999999886266 0.5 0  -0.09999999999889042 0.5 0  -0.1099999999989182 0.5 0  -0.1199999999989459 0.5 0  -0.1299999999989737 0.5 0  -0.1399999999990014 0.5 0  -0.1499999999990291 0.5 0  -0.1599999999990568 0.5 0  -0.1699999999990847 0.5 0  -0.1799999999991124 0.5 0  -0.1899999999991401 0.5 0  -0.1999999999991678 0.5 0  -0.2099999999991955 0.5 0  -0.2199999999992234 0.5 0  -0.2299999999992511 0.5 0  -0.2399999999992788 0.5 0  -0.2499999999993066 0.5 0  -0.2599999999993342 0.5 0  -0.269999999999362 0.5 0  -0.2799999999993897 0.5 0  -0.2899999999994175 0.5 0  -0.2999999999994452 0.5 0  -0.3099999999994729 0.5 0  -0.3199999999995007 0.5 0  -0.3299999999995284 0.5 0  -0.3399999999995562 0.5 0  -0.3499999999995839 0.5 0  -0.3599999999996116 0.5 0  -0.3699999999996393 0.5 0  -0.379999999999667 0.5 0  -0.3899999999996949 0.5 0  -0.3999999999997226 0.5 0  -0.4099999999997503 0.5 0  -0.419999999999778 0.5 0  -0.4299999999998058 0.5 0  -0.4399999999998336 0.5 0  -0.4499999999998613 0.5 0  -0.4599999999998891 0.5 0  -0.4699999999999167 0.5 0  -0.4799999999999445 0.5 0  -0.4899999999999722 0.5 0  -0.5 0.4902110204681464 0  -0.5 0.4804459958734807 0  -0.5 0.4707048677450883 0  -0.5 0.4609875815766065 0  -0.5 0.4512940759251849 0  -0.5 0.4416242912883993 0  -0.5 0.4319781678689807 0  -0.5 0.4223556545383647 0  -0.5 0.4127566896324213 0  -0.5 0.4031812128200121 0  -0.5 0.3936291733057916 0  -0.5 0.3841005081172659 0  -0.5 0.3745951585781932 0  -0.5 0.3651130778999337 0  -0.5 0.3556541993788045 0  -0.5 0.3462184677228392 0  -0.5 0.3368058273705318 0  -0.5 0.3274162224888609 0  -0.5 0.3180495969712945 0  -0.5 0.3087058944357755 0  -0.5 0.299385058222682 0  -0.5 0.2900870313927414 0  -0.5 0.2808117567250807 0  -0.5 0.2715591844628491 0  -0.5 0.2623292564012653 0  -0.5 0.253121909553727 0  -0.5 0.2439371050851549 0  -0.5 0.2347747685524501 0  -0.5 0.2256348634421331 0  -0.5 0.2165173209784076 0  -0.5 0.207422087829958 0  -0.5 0.1983491207029381 0  -0.5 0.1892983550950482 0  -0.5 0.1802697378305253 0  -0.5 0.1712632154965152 0  -0.5 0.1622787344187354 0  -0.5 0.1533162406595534 0  -0.5 0.1443756800160514 0  -0.5 0.1354569980180493 0  -0.5 0.1265601399261414 0  -0.5 0.1176850622761093 0  -0.5 0.1088317009011999 0  -0.5 0.09167500000001694 0  -0.5 0.08335000000003931 0  -0.5 0.07502500000006167 0  -0.5 0.06670000000008947 0  -0.5 0.05837500000011001 0  -0.5 0.0500500000001328 0  -0.5 0.0417250000001127 0  -0.5 0.03340000000008944 0  -0.5 0.02507500000006573 0  -0.5 0.01675000000004653 0  -0.5 0.008425000000027341 
[...]
<PointData  Scalars="f_40"> 
<DataArray  type="Float64"  Name="f_40"  format="ascii">-2.8503172744568404e-02  4.4925750280400221e-05  -2.4029373408231973e-03  -4.0676361699670788e-04  3.0300000000000000e+02  3.0300000000000000e+02  -1.8708123969841914e-07  -1.7896344082304907e-07  -4.4750872672937096e-04  -4.2897505216089562e-04  7.5206342155508617e-06  6.7831468926531528e-06  4.8637796571967623e-05  5.0247322558178106e-05  5.0865736336384364e-05  4.9307183278489608e-05  4.7069485055114177e-05  4.4137494719107132e-05  4.0823126015381735e-05  3.5751156671271060e-05  3.1429097760685161e-05  2.6220923977748557e-05  2.1310524719968208e-05  1.5715148990017478e-05  9.5317543404227786e-06  4.1985007916309478e-06  -8.6307952901094992e-07  -7.1817847917798861e-06  -1.3041850790122636e-05  -2.0338683815341537e-05  -2.6629373628507848e-05  -3.3963682094338083e-05  -4.1206639532946564e-05  -4.8184056325383049e-05  -5.5853068681927484e-05  -6.3393785698680197e-05  -7.1713804174392939e-05  -7.8835888990590208e-05  -8.7206163115362124e-05  -9.7431396628331696e-05  -1.0626747110728272e-04  -1.1553827972915751e-04  -1.2513110145534774e-04  -1.3419614282778462e-04  -1.4471031555901256e-04  -1.5533813525905963e-04  -1.6685967972545474e-04  -1.7767684109979323e-04  -1.8857495274854662e-04  -2.0032249816046146e-04  -2.1245141216857843e-04  -2.2450387914589790e-04  -2.3716554238979078e-04  -2.5035422934257346e-04  -2.6295610460483473e-04  -2.7653786369876966e-04  -2.8941397495456161e-04  -3.0474663601267086e-04  -3.1721712232785136e-04  -3.3138564508219330e-04  -3.4482948409884635e-04  -3.5887368694998963e-04  -3.7283904572107924e-04  -3.8536003086643024e-04  -4.0023743734657596e-04  -4.1567918369542087e-04  -4.2870677930938520e-04  -4.4183721539825196e-04  -4.5572893726544475e-04  -4.6786811843959637e-04  -4.8197256522581954e-04  -4.9453037882393226e-04  -5.0846366614878795e-04  -5.2255602335531148e-04  -5.3374357584565018e-04  -5.4636270190701656e-04  -5.5822782319895356e-04  -5.7028486310547078e-04  -5.8389432161517249e-04  -5.9475714962267852e-04  -6.0654873882434247e-04  -6.1799761679709030e-04  -6.2978114588434990e-04  -6.4286619288547199e-04  -6.5487901734955054e-04  -6.6440146529044301e-04  -6.7595138235214110e-04  -6.8697229194733718e-04  -6.9822874714959909e-04  -7.1028954201152736e-04  -7.2383967522713407e-04  -7.3515741463703820e-04  -7.5010902778927695e-04  -7.6334161338853328e-04  -7.7778726796433372e-04  -7.9124413402096151e-04  -8.0816511030952281e-04  -8.2640302029086921e-04  -8.4586033150086369e-04  -8.7116641651874553e-04  -8.9408997658715179e-04  -9.1997206810898375e-04  -9.5620313596473348e-04  -9.9931684142078600e-04  -1.0414620271757039e-03  -1.1000935886738036e-03  -1.1811704079247106e-03  -1.2911385394442057e-03  -1.4300142368815357e-03  -1.6079630248825648e-03  -1.9293567064011220e-03  -1.7013443907526792e-03  -1.2057079372253844e-03  -9.7673609425092908e-04  -8.5761789153776774e-04  -7.8235235014330535e-04  -7.3259611328912685e-04  -7.0089959599726602e-04  -6.7840997473479249e-04  -6.5940587711354299e-04  -6.4629281145152113e-04  -6.3292633254202182e-04  -6.2412537666775233e-04  -6.1397745033407334e-04  -6.0728513775843438e-04  -5.9939266946851027e-04  -5.9333270976517276e-04  -5.8677027325891465e-04  -5.8091695129537408e-04  -5.7505329584083920e-04  -5.6876299463950910e-04  -5.6285579624057469e-04  -5.5712220686103748e-04  -5.5097859970240398e-04  -5.4446198798844213e-04  -5.3795889484593493e-04  -5.3124795875223905e-04  -5.2526081866766810e-04  -5.1941737092287845e-04  -5.1245686009907421e-04  -5.0582363906954270e-04  -4.9883468938438928e-04  -4.9247965091676438e-04  -4.8542354007027639e-04  -4.7958284086626728e-04  -4.7328275057159348e-04  -4.6713124855760139e-04  -4.6042050417882533e-04  -4.5480256024608620e-04  -4.4855832340827325e-04  -4.4370853936051563e-04  -4.3841150582005190e-04  -4.3347565354604140e-04  -4.2443035718715821e-04  -4.2133086960321667e-04  -4.1758532900439512e-04  -4.1495643816253004e-04  -4.1311608860132099e-04  -4.0948574996621789e-04  -4.0804537813438378e-04  -4.0708538331358986e-04  -4.0662683240240080e-04  -4.0588496543063265e-04  -4.0595373276926277e-04  -4.0744289386866669e-04  -4.0913974695853608e-04  -4.1070971641952580e-04  -4.1301448495147575e-04  -4.1639670230574251e-04  -4.1914459248526813e-04  -4.2247589860153396e-04  -4.2736724650339008e-04  -4.3213168489382594e-04  -4.3609975127259775e-04  -4.4153182980710633e-04  -4.5416596475898730e-04  -4.6111482863367583e-04  -4.6832196829107379e-04  -4.7490463332181915e-04  -4.8356016418701019e-04  -4.9112591521230690e-04  -5.0026994733377861e-04  -5.0846944812148436e-04  -5.1744113771145064e-04  -5.2541114760078233e-04  -5.3497676771524462e-04  -5.4354729345564554e-04  -5.5315076471007172e-04  -5.6250874747443421e-04  -5.7143231100655674e-04  -5.8007542509174869e-04  -5.8854056133816445e-04  -5.9748589340482292e-04  -6.0618712250352252e-04  -6.1492229882174345e-04  -6.2358810235967673e-04  -6.3068483711823807e-04  -6.3878950389534002e-04  -6.4546004170255985e-04  -6.5314917093982025e-04  -6.6021203026167628e-04  -6.6651836777631738e-04  -6.7188361927344781e-04  -6.7837715008229162e-04  -6.8293037814735435e-04  -6.8867475798867358e-04  -6.9300989027076929e-04  -6.9770117352313250e-04  -7.0155180098633208e-04  -7.0467396804000911e-04  -7.0866725637403123e-04  -7.1040358803646118e-04  -7.5149496899883268e-04  1.8912093535917030e-03  -1.2418639155558063e-01  7.5866071273675784e-02  -1.3806474905210193e+00  3.0300000000000000e+02  3.0300000000000000e+02  3.0300000000000000e+02  3.0300000000000000e+02  3.0300000000000000e+02  3.0300000000000000e+02  3.0300000000000000e+02  3.0300000000000000e+02  3.0300000000000000e+02  3.0300000000000000e+02  3.0300000000000000e+02  3.0300000000000000e+02  3.0300000000000000e+02  3.0300000000000000e+02  3.0300000000000000e+02  3.0300000000000000e+02  3.0300000000000000e+02  3.0300000000000000e+02  3.0300000000000000e+02  3.0300000000000000e+02  3.0300000000000000e+02  3.0300000000000000e+02  3.0300000000000000e+02  3.0300000000000000e+02  3.0300000000000000e+02  3.0300000000000000e+02  3.0300000000000000e+02  3.0300000000000000e+02  3.0300000000000000e+02  3.0300000000000000e+02  3.0300000000000000e+02  3.0300000000000000e+02  3.0300000000000000e+02  3.0300000000000000e+02  3.0300000000000000e+02  3.0300000000000000e+02  3.0300000000000000e+02  3.0300000000000000e+02  3.0300000000000000e+02  3.0300000000000000e+02  3.0300000000000000e+02  3.0300000000000000e+02  3.0300000000000000e+02  3.0300000000000000e+02  3.0300000000000000e+02  3.0300000000000000e+02  3.0300000000000000e+02  3.0300000000000000e+02  3.0300000000000000e+02  3.0300000000000000e+02  3.0300000000000000e+02  3.0300000000000000e+02  3.0300000000000000e+02  3.0300000000000000e+02  3.0300000000000000e+02  3.0300000000000000e+02  3.0300000000000000e+02  3.0300000000000000e+02  3.0300000000000000e+02  3.0300000000000000e+02  3.0300000000000000e+02  3.0300000000000000e+02  3.0300000000000000e+02  3.0300000000000000e+02  3.0300000000000000e+02  3.0300000000000000e+02  3.0300000000000000e+02  3.0300000000000000e+02  3.0300000000000000e+02  3.0300000000000000e+02  3.0300000000000000e+02  3.0300000000000000e+02  3.0300000000000000e+02  3.0300000000000000e+02  3.0300000000000000e+02  3.0300000000000000e+02  3.0300000000000000e+02  3.0300000000000000e+02  3.0300000000000000e+02  3.0300000000000000e+02  3.0300000000000000e+02  3.0300000000000000e+02  3.0300000000000000e+02  3.0300000000000000e+02  3.0300000000000000e+02  3.0300000000000000e+02  3.0300000000000000e+02  3.0300000000000000e+02  3.0300000000000000e+02  3.0300000000000000e+02  3.0300000000000000e+02  3.0300000000000000e+02  3.0300000000000000e+02  3.0300000000000000e+02  3.0300000000000000e+02  3.0300000000000000e+02  3.0300000000000000e+02  3.0300000000000000e+02  3.0300000000000000e+02  -8.9929780066804643e-01  8.8396961493552251e-02  -8.4529680450033062e-02  1.6631845394323550e-03  9.1459833913074316e-05  1.1179853148383104e-04  1.1118416440689754e-04  1.0994341830500396e-04  1.0834402446226243e-04  1.0714830789653185e-04  1.0593276165234645e-04  1.0378719380424253e-04  1.0170389858854207e-04  1.0015053070544805e-04  9.7380401350427589e-05  9.5673029952121651e-05  9.3249159615272823e-05  9.0411489019844366e-05  8.7880502977971683e-05  8.4877184417955483e-05  8.2629272176016843e-05  7.8792240554931918e-05  7.5950894236735810e-05  7.2566847961192578e-05  6.8680787720543809e-05  6.5454359559212388e-05  6.2108534256038805e-05  5.8861251929897345e-05  5.4311100287024401e-05  5.1009378811196420e-05  4.6160580223089463e-05  4.3014529507193692e-05  3.9813972608208462e-05  3.5159649851112578e-05  3.1831346338921877e-05  2.8195650451316808e-05  2.4541918897089598e-05  2.0786529019497195e-05  1.7454099049137649e-05  1.4564054025451652e-05  1.1713529987403711e-05  9.2418266278958927e-06  4.6885108295583068e-06  3.1475758484019970e-06  1.7277318389511874e-06  8.7478695684202675e-07  1.7101925895714851e-07  -4.4158747575414803e-07  -5.3925038657217095e-07  -5.1798392121396144e-07  -3.9963881661612350e-07  -3.1193874200813762e-07  -2.0847590659139967e-07  -5.1389384049227306e-07  -1.1566634641780558e-06  -1.5207146167047746e-06  -1.6698869920608345e-06  -1.1456982228860460e-06  -1.7021008815246391e-07  1.2747617336299101e-06  2.5542362527605194e-06  4.9569390866948055e-06  8.5572013163028373e-06  1.1697275074044267e-05  1.4961275300274684e-05  1.9943438857471673e-05  2.3681078669573649e-05  2.8267616677903935e-05  3.4106151659020691e-05  3.7767564803061457e-05  4.3318270740453847e-05  5.0720335063382200e-05  5.6295449471167055e-05  6.1719293813306377e-05  6.9101048702627639e-05  7.2997837282118887e-05  7.9583458134525108e-05  8.8988728742603259e-05  9.5473956277026951e-05  1.0182654075347646e-04  1.1039526123682945e-04  1.1401053900616445e-04  1.2137076898973976e-04  1.3268566067988085e-04  1.3989445164333138e-04  1.4704532257102100e-04  1.5651932465321835e-04  1.5978378546830163e-04  1.6779079244967163e-04  1.8071193091358614e-04  1.8757990331183693e-04  1.9584299363405335e-04  2.0682006080545141e-04  2.1033479956386234e-04  2.1914989622341717e-04  2.3322345850055505e-04  2.4079197623196941e-04  2.4930233802691312e-04  2.6041870647340934e-04  2.6293693128274349e-04  2.7040674188554789e-04  2.8381968797593109e-04  2.8775628114550137e-04  2.9084784733583122e-04  2.9450921093812491e-04  2.9634589289555800e-04  2.1401199728125875e-04  -8.1668626023182686e-03  -5.3603025609001258e-03  2.8451369275401189e-04  3.0585120014486904e-04  2.9720876216491173e-04  2.9438672756328642e-04  2.9218545792431455e-04  2.8643740332876113e-04  2.7288143806930066e-04  2.6517892654295534e-04  2.6268639373128091e-04  2.5277834205997474e-04  2.4388795013672229e-04  2.3438655970529240e-04  2.1967053047848754e-04  2.1070986678832897e-04  2.0724041370817433e-04  1.9689347743489605e-04  1.8864785402896342e-04  1.8043327973819046e-04  1.6739044051245139e-04  1.5930466224050376e-04  1.5578024442320870e-04  1.4618213292054571e-04  1.3898640958293364e-04  1.3184398412044828e-04  1.2092389461612319e-04  1.1363302159391249e-04  1.0985431620030416e-04  1.0132507705082064e-04  9.4917734061450418e-05  8.8624979670649654e-05  7.9678451925576001e-05  7.3320177992972055e-05  6.9417676725189249e-05  6.2158558945774495e-05  5.6707421664707048e-05  5.1328050060801188e-05  4.4281707949757904e-05  3.8865210689513282e-05  3.5153287285388397e-05  2.9348764222366604e-05  2.4916988435334971e-05  2.1194060047513237e-05  1.6272116610556199e-05  1.3000727721045236e-05  9.7893600361808433e-06  6.1255152006678932e-06  3.5388090331472024e-06  2.1055785505531181e-06  6.1165406441768552e-07  -5.9334317628339978e-07  -1.3093731536202708e-06  -1.2969361040518593e-06  -1.0320819433443516e-06  -4.7760989915864186e-07  -1.9675099360961018e-07  -2.7879558031510710e-07  -3.4327892188790651e-07  -4.1340545395697721e-07  -3.5729803817935862e-07  -1.9011329597155535e-07  5.1558416907838448e-07  1.3191712967179685e-06  2.2652216717626514e-06  3.7644695000448877e-06  5.3932601853556204e-06  1.0027060384580512e-05  1.2421659271549789e-05  1.5408595270427120e-05  1.8263613537722266e-05  2.1486475645002481e-05  2.5017831922719930e-05  2.8515097947662710e-05  3.1953487844850451e-05  3.4882640045859211e-05  3.9102977183069534e-05  4.2051401910636073e-05  4.4707754768489107e-05  4.8875141084014800e-05  5.1603668503827240e-05  5.5234292047539560e-05  5.7813857230377174e-05  6.0353417127954847e-05  6.2533824252722830e-05  6.5162664180029887e-05  6.7356061707826183e-05  6.8941001783219422e-05  7.0973052197651583e-05  7.1940601785966578e-05  7.2872326030874461e-05  7.3697240080381542e-05  7.4184683453843711e-05  7.4467710881631030e-05  7.3866690626772581e-05  7.3508620886183777e-05  7.2815948789652570e-05  7.1246115017843382e-05  7.0225665204032604e-05  6.7980225588019900e-05  6.5182401653064338e-05  6.2555746162841854e-05  5.9535186537705189e-05  5.5403795405355172e-05  5.0893179194576761e-05  4.5800790829056485e-05  4.1459957295706542e-05  3.6926754506376348e-05  3.6362681044622263e-05  7.9940463723538871e-06  9.5539381900962864e-06  1.0922520117846478e-05  1.1889254452300277e-05  1.3231184511822488e-05  1.3982794444070693e-05  1.5254824816198760e-05  1.6029762635256285e-05  1.6780502920811220e-05  1.8080581671281457e-05  1.8926982720325822e-05  1.9909715967562738e-05  2.0824251441413212e-05  2.1872447408439215e-05  2.3339468892207337e-05  2.4108875358611968e-05  2.5569930985945605e-05  2.6630322608948701e-05  2.7437657654321851e-05  2.9104154605775791e-05  2.9799074699312119e-05  3.1412433378703214e-05  3.1940338303790759e-05  3.3197060360356579e-05  3.4704523504978562e-05  3.5086690189661095e-05  3.6059667982975880e-05  3.7279192547978016e-05  3.7122787124093228e-05  3.7455143868871724e-05  3.8417809420989925e-05  3.8129318679320780e-05  3.7810793308717815e-05  3.7591248035666360e-05  3.5668369024080626e-05  3.5866669231873306e-05  3.3806874138825175e-05  3.1654223842921716e-05  2.8982356239892811e-05  2.5744780686361273e-05  2.2132044779467106e-05  1.7044149929461724e-05  1.2432298813656043e-05  5.3876362021686550e-06  -3.0118863833739932e-06  -1.0861965922828525e-05  -2.2833965250261539e-05  -3.2793602758594565e-05  -4.7351064950704843e-05  -6.5292109214095949e-05  -8.4967999387521972e-05  -1.1217579444738140e-04  -1.3893961852124695e-04  -1.7425765512986969e-04  -2.2258300586385565e-04  -2.6276339356350070e-04  -3.2782792145960072e-04  -3.8897181201180345e-04  -4.5431624197665580e-04  -5.2789645446113726e-04  -5.8701525943566585e-04  -6.4277030236874547e-04  -7.0152009010046883e-04  -7.4385264883504237e-04  -7.7529565184716528e-04  -7.9953707100306737e-04  -8.1730136606937684e-04  -8.2729907845550997e-04  -8.2833614847993304e-04  -8.2668769670619230e-04  -8.2179797066331229e-04  -8.1896284158668035e-04  -8.0582513257428502e-04  -7.9420324802524634e-04  -7.8568973470181762e-04  -7.7443671548913147e-04  -7.6068307926142637e-04  -7.5172602949726615e-04  -7.3811762721339444e-04  -7.2563379582933922e-04  -7.1737191785304082e-04  -7.0448218241924831e-04  -6.9380680932456195e-04  -6.8288565976430346e-04  -6.7261805223255665e-04  -6.6332183082228274e-04  -6.5367564145562933e-04  -6.4418044782110990e-04  -6.3499550124615023e-04  -6.2606714768015425e-04  -6.1816446099019506e-04  -6.0957575211343967e-04  -6.0117624995201463e-04  -5.9278222114457144e-04  -5.8476532014837938e-04  -5.7717326115284539e-04  -5.6954456609030338e-04  -5.6159182977169391e-04  -5.5342977210872822e-04  -5.4572419312801644e-04  -5.3792062249806926e-04  -5.2962663105212175e-04  -5.2175878914754808e-04  -5.1429773480882505e-04  -5.0561936126353765e-04  -4.9807040095739617e-04  -4.8909751421338397e-04  -4.8039203589799872e-04  -4.7225661544527168e-04  -4.6321214501231136e-04  -4.5437110634179970e-04  8.4938687281576982e-06  9.7512629330964265e-06  1.0800116737346879e-05  1.1519115994095199e-05  1.2589068144325009e-05  1.3115478744613679e-05  1.4135428062064323e-05  1.4722363074411669e-05  1.5266376916796977e-05  1.6359532401907466e-05  1.7029083617295541e-05  1.7811836103760163e-05  1.8577551315926409e-05  1.9464907750875100e-05  2.0725595697011252e-05  2.1328739959500926e-05  2.2589877476774130e-05  2.3593789189954536e-05  2.4213401724503228e-05  2.5688241967726937e-05  2.6250846578200924e-05  2.7749316720807778e-05  2.8180424862767605e-05  2.9216494955547616e-05  3.0652122038362940e-05  3.0835485590733610e-05  3.1673214291200398e-05  3.2875148440184345e-05  3.2593767891482312e-05  3.2865035180630806e-05  3.3794679543888942e-05  3.3334137810769147e-05  3.3035946030743345e-05  3.2797387308844005e-05  3.0732704141250478e-05  3.1070751074295421e-05  2.8976005539580627e-05  2.6782622139727561e-05  2.4210384978742875e-05  2.1134373108732384e-05  1.7350422716404708e-05  1.2452238558526519e-05  8.0772616889234070e-06  1.1440311985313203e-06  -7.0956830105823306e-06  -1.4737716976466966e-05  -2.6331899501019424e-05  -3.6299549835204506e-05  -5.0073799595351417e-05  -6.7361479738252888e-05  -8.6375290085369272e-05  -1.1206042922180264e-04  -1.3840125012309204e-04  -1.7121779159702118e-04  -2.1612151920007836e-04  -2.5519643278691613e-04  -3.1615480370719896e-04  -3.7494794235472918e-04  -4.3654921890544905e-04  -5.0871750636275544e-04  -5.6749223613614976e-04  -6.2297892319433472e-04  -6.8271524593287115e-04  -7.2784385497465774e-04  -7.6113190052386421e-04  -7.8900439262669000e-04  -8.0936971496221844e-04  -8.2284333731430677e-04  -8.2648156026459297e-04  -8.2798820282332171e-04  -8.2534129613081068e-04  -8.2486881602678291e-04  -8.1331244497647023e-04  -8.0325791887296950e-04  -7.9592310422636238e-04  -7.8579518071053209e-04  -7.7261874201597263e-04  -7.6430063669685755e-04  -7.5110936478012692e-04  -7.3887693362651330e-04  -7.3068711055251261e-04  -7.1767379291995316e-04  -7.0687994510986363e-04  -6.9582787973448946e-04  -6.8495607145902947e-04  -6.7523048579966848e-04  -6.6491982698234440e-04  -6.5475090362311064e-04  -6.4485735791436588e-04  -6.3492965149382580e-04  -6.2615843269090289e-04  -6.1659778415683233e-04  -6.0716608971424029e-04  -5.9779760490013905e-04  -5.8849975387626570e-04  -5.7988596701531215e-04  -5.7115871101259146e-04  -5.6178588413970771e-04  -5.5248357461813995e-04  -5.4340813960361144e-04  -5.3417481932773955e-04  -5.2446152064588149e-04  -5.1526386576748078e-04  -5.0642206075369946e-04  -4.9637275114361630e-04  -4.8749482967002218e-04  -4.7700510983551657e-04  -4.6711778533938886e-04  -4.5724560035826338e-04  -4.4692994747267946e-04  -4.3648508883293869e-04  -2.6717715642414413e-02  -1.4650982578060353e-02  -8.8914434058778025e-03  -5.9187347381335857e-03  -4.3714732631993623e-03  -3.3623427299353512e-03  -2.6821182925542029e-03  -2.2612889967215674e-03  -1.9452263333799324e-03  -1.7216038978460210e-03  -1.5542873540048336e-03  -1.4107100811199486e-03  -1.3045773381557247e-03  -1.2113768094657860e-03  -1.1398590327068938e-03  -1.0749345058033801e-03  -1.0236760577370483e-03  -9.8005139731874346e-04  -9.3892198991177224e-04  -9.0293555470770056e-04  -8.7359956133751485e-04  -8.4234757574385268e-04  -8.1891337278491437e-04  -7.9743134721008602e-04  -7.7508839161420477e-04  -7.5515844572452155e-04  -7.3716376602142824e-04  -7.2087778870698511e-04  -7.0579682784287798e-04  -6.9057398847861265e-04  -6.7697037079499512e-04  -6.6332672146083671e-04  -6.5077051604687239e-04  -6.3871631437209856e-04  -6.2758527138916250e-04  -6.1640951941330300e-04  -6.0525081624018427e-04  -5.9429037206682931e-04  -5.8383918121253560e-04  -5.7391718187204603e-04  -5.6371819302286868e-04  -5.5345434047837433e-04  -5.4368981506176296e-04  -5.3375298110196331e-04  -5.2394406997160255e-04  -5.1353140567627622e-04  -5.0318918439088388e-04  -4.9305608846239297e-04  -4.8261668381841639e-04  -4.7188079881306446e-04  -4.6105750368947540e-04  -4.5037757369617061e-04  -4.3858124629212478e-04  -4.2756421920711813e-04  -4.1530890008551304e-04  -1.9367717362214401e-04  -3.3366609458824464e-05  -4.2463800286001585e-04  -5.672880731