<?xml version="1.0"?>
<VTKFile type="UnstructuredGrid"  version="0.1"  >
<UnstructuredGrid>
<Piece  NumberOfPoints="15540" NumberOfCells="30546">
<Points>
<DataArray  type="Float64"  NumberOfComponents="3"  format="ascii">0 0 0  -0.5 -0.5 0  0.5 -0.5 0  0.5 0 0  0.5 0.5 0  -0.5 0.5 0  -0.5 0.0001 0  -0.5 -0.0001 0  0.5 0.1 0  0.5 -0.1 0  -0.5 -0.1 0  -0.5 0.1 0  -0.4900000000000277 -0.5 0  -0.4800000000000555 -0.5 0  -0.4700000000000832 -0.5 0  -0.4600000000001109 -0.5 0  -0.4500000000001387 -0.5 0  -0.4400000000001664 -0.5 0  -0.4300000000001942 -0.5 0  -0.4200000000002219 -0.5 0  -0.4100000000002497 -0.5 0  -0.4000000000002774 -0.5 0  -0.3900000000003052 -0.5 0  -0.3800000000003328 -0.5 0  -0.3700000000003606 -0.5 0  -0.3600000000003883 -0.5 0  -0.3500000000004161 -0.5 0  -0.3400000000004438 -0.5 0  -0.3300000000004716 -0.5 0  -0.3200000000004993 -0.5 0  -0.3100000000005271 -0.5 0  -0.3000000000005548 -0.5 0  -0.2900000000005825 -0.5 0  -0.2800000000006103 -0.5 0  -0.2700000000006381 -0.5 0  -0.2600000000006658 -0.5 0  -0.2500000000006935 -0.5 0  -0.2400000000007212 -0.5 0  -0.230000000000749 -0.5 0  -0.2200000000007767 -0.5 0  -0.2100000000008044 -0.5 0  -0.2000000000008322 -0.5 0  -0.19000000000086 -0.5 0  -0.1800000000008877 -0.5 0  -0.1700000000009154 -0.5 0  -0.1600000000009431 -0.5 0  -0.1500000000009709 -0.5 0  -0.1400000000009986 -0.5 0  -0.1300000000010264 -0.5 0  -0.1200000000010541 -0.5 0  -0.1100000000010818 -0.5 0  -0.1000000000011096 -0.5 0  -0.09000000000113734 -0.5 0  -0.08000000000116503 -0.5 0  -0.07000000000119283 -0.5 0  -0.06000000000122058 -0.5 0  -0.05000000000124827 -0.5 0  -0.04000000000127607 -0.5 0  -0.03000000000130376 -0.5 0  -0.02000000000133151 -0.5 0  -0.01000000000135925 -0.5 0  -1.376121439022882e-12 -0.5 0  0.009999999998640763 -0.5 0  0.01999999999866864 -0.5 0  0.02999999999869629 -0.5 0  0.03999999999872406 -0.5 0  0.04999999999875182 -0.5 0  0.05999999999877947 -0.5 0  0.06999999999880724 -0.5 0  0.079999999998835 -0.5 0  0.08999999999886266 -0.5 0  0.09999999999889042 -0.5 0  0.1099999999989182 -0.5 0  0.1199999999989459 -0.5 0  0.1299999999989737 -0.5 0  0.1399999999990014 -0.5 0  0.1499999999990291 -0.5 0  0.1599999999990568 -0.5 0  0.1699999999990847 -0.5 0  0.1799999999991124 -0.5 0  0.1899999999991401 -0.5 0  0.1999999999991678 -0.5 0  0.2099999999991955 -0.5 0  0.2199999999992234 -0.5 0  0.2299999999992511 -0.5 0  0.2399999999992788 -0.5 0  0.2499999999993066 -0.5 0  0.2599999999993342 -0.5 0  0.269999999999362 -0.5 0  0.2799999999993897 -0.5 0  0.2899999999994175 -0.5 0  0.2999999999994452 -0.5 0  0.3099999999994729 -0.5 0  0.3199999999995007 -0.5 0  0.3299999999995284 -0.5 0  0.3399999999995562 -0.5 0  0.3499999999995839 -0.5 0  0.3599999999996116 -0.5 0  0.3699999999996393 -0.5 0  0.379999999999667 -0.5 0  0.3899999999996949 -0.5 0  0.3999999999997226 -0.5 0  0.4099999999997503 -0.5 0  0.419999999999778 -0.5 0  0.4299999999998058 -0.5 0  0.4399999999998336 -0.5 0  0.4499999999998613 -0.5 0  0.4599999999998891 -0.5 0  0.4699999999999167 -0.5 0  0.4799999999999445 -0.5 0  0.4899999999999722 -0.5 0  0.5 -0.4902110204681464 0  0.5 -0.4804459958734807 0  0.5 -0.4707048677450883 0  0.5 -0.4609875815766065 0  0.5 -0.4512940759251849 0  0.5 -0.4416242912883993 0  0.5 -0.4319781678689807 0  0.5 -0.4223556545383647 0  0.5 -0.4127566896324213 0  0.5 -0.4031812128200121 0  0.5 -0.3936291733057916 0  0.5 -0.3841005081172659 0  0.5 -0.3745951585781932 0  0.5 -0.3651130778999337 0  0.5 -0.3556541993788045 0  0.5 -0.3462184677228392 0  0.5 -0.3368058273705318 0  0.5 -0.3274162224888609 0  0.5 -0.3180495969712945 0  0.5 -0.3087058944357755 0  0.5 -0.299385058222682 0  0.5 -0.2900870313927414 0  0.5 -0.2808117567250807 0  0.5 -0.2715591844628491 0  0.5 -0.2623292564012653 0  0.5 -0.253121909553727 0  0.5 -0.2439371050851549 0  0.5 -0.2347747685524501 0  0.5 -0.2256348634421331 0  0.5 -0.2165173209784076 0  0.5 -0.207422087829958 0  0.5 -0.1983491207029381 0  0.5 -0.1892983550950482 0  0.5 -0.1802697378305253 0  0.5 -0.1712632154965152 0  0.5 -0.1622787344187354 0  0.5 -0.1533162406595534 0  0.5 -0.1443756800160514 0  0.5 -0.1354569980180493 0  0.5 -0.1265601399261414 0  0.5 -0.1176850622761093 0  0.5 -0.1088317009011999 0  0.5 -0.09166666666668973 0  0.5 -0.08333333333337943 0  0.5 -0.07500000000006915 0  0.5 -0.06666666666675886 0  0.5 -0.05833333333344858 0  0.5 -0.05000000000013693 0  0.5 -0.04166666666678191 0  0.5 -0.03333333333342643 0  0.5 -0.02500000000006916 0  0.5 -0.01666666666671188 0  0.5 -0.00833333333335548 0  0.5 0.008333333333318314 0  0.5 0.01666666666663358 0  0.5 0.02499999999994162 0  0.5 0.03333333333325101 0  0.5 0.04166666666655769 0  0.5 0.04999999999986843 0  0.5 0.05833333333322258 0  0.5 0.06666666666657715 0  0.5 0.07499999999993352 0  0.5 0.08333333333328992 0  0.5 0.09166666666664541 0  0.5 0.1088317009011616 0  0.5 0.1176850622760307 0  0.5 0.1265601399260203 0  0.5 0.1354569980178909 0  0.5 0.1443756800158549 0  0.5 0.153316240659315 0  0.5 0.1622787344184454 0  0.5 0.1712632154961752 0  0.5 0.1802697378301332 0  0.5 0.1892983550946039 0  0.5 0.1983491207024433 0  0.5 0.2074220878294123 0  0.5 0.216517320977811 0  0.5 0.2256348634414833 0  0.5 0.2347747685517479 0  0.5 0.2439371050844009 0  0.5 0.2531219095529224 0  0.5 0.2623292564004089 0  0.5 0.2715591844619371 0  0.5 0.2808117567241139 0  0.5 0.290087031391723 0  0.5 0.2993850582216101 0  0.5 0.3087058944347426 0  0.5 0.3180495969703129 0  0.5 0.3274162224879299 0  0.5 0.3368058273696494 0  0.5 0.3462184677220051 0  0.5 0.3556541993780186 0  0.5 0.3651130778991989 0  0.5 0.3745951585775107 0  0.5 0.3841005081166359 0  0.5 0.3936291733052134 0  0.5 0.4031812128194852 0  0.5 0.412756689631945 0  0.5 0.4223556545379392 0  0.5 0.431978167868607 0  0.5 0.4416242912880781 0  0.5 0.4512940759249164 0  0.5 0.4609875815763912 0  0.5 0.4707048677449264 0  0.5 0.4804459958733726 0  0.5 0.4902110204680924 0  0.4900000000000277 0.5 0  0.4800000000000555 0.5 0  0.4700000000000832 0.5 0  0.4600000000001109 0.5 0  0.4500000000001387 0.5 0  0.4400000000001664 0.5 0  0.4300000000001942 0.5 0  0.4200000000002219 0.5 0  0.4100000000002497 0.5 0  0.4000000000002774 0.5 0  0.3900000000003052 0.5 0  0.3800000000003328 0.5 0  0.3700000000003606 0.5 0  0.3600000000003883 0.5 0  0.3500000000004161 0.5 0  0.3400000000004438 0.5 0  0.3300000000004716 0.5 0  0.3200000000004993 0.5 0  0.3100000000005271 0.5 0  0.3000000000005548 0.5 0  0.2900000000005825 0.5 0  0.2800000000006103 0.5 0  0.2700000000006381 0.5 0  0.2600000000006658 0.5 0  0.2500000000006935 0.5 0  0.2400000000007212 0.5 0  0.230000000000749 0.5 0  0.2200000000007767 0.5 0  0.2100000000008044 0.5 0  0.2000000000008322 0.5 0  0.19000000000086 0.5 0  0.1800000000008877 0.5 0  0.1700000000009154 0.5 0  0.1600000000009431 0.5 0  0.1500000000009709 0.5 0  0.1400000000009986 0.5 0  0.1300000000010264 0.5 0  0.1200000000010541 0.5 0  0.1100000000010818 0.5 0  0.1000000000011096 0.5 0  0.09000000000113734 0.5 0  0.08000000000116503 0.5 0  0.07000000000119283 0.5 0  0.06000000000122058 0.5 0  0.05000000000124827 0.5 0  0.04000000000127607 0.5 0  0.03000000000130376 0.5 0  0.02000000000133151 0.5 0  0.01000000000135925 0.5 0  1.376121439022882e-12 0.5 0  -0.009999999998640763 0.5 0  -0.01999999999866864 0.5 0  -0.02999999999869629 0.5 0  -0.03999999999872406 0.5 0  -0.04999999999875182 0.5 0  -0.05999999999877947 0.5 0  -0.06999999999880724 0.5 0  -0.079999999998835 0.5 0  -0.08999999999886266 0.5 0  -0.09999999999889042 0.5 0  -0.1099999999989182 0.5 0  -0.1199999999989459 0.5 0  -0.1299999999989737 0.5 0  -0.1399999999990014 0.5 0  -0.1499999999990291 0.5 0  -0.1599999999990568 0.5 0  -0.1699999999990847 0.5 0  -0.1799999999991124 0.5 0  -0.1899999999991401 0.5 0  -0.1999999999991678 0.5 0  -0.2099999999991955 0.5 0  -0.2199999999992234 0.5 0  -0.2299999999992511 0.5 0  -0.2399999999992788 0.5 0  -0.2499999999993066 0.5 0  -0.2599999999993342 0.5 0  -0.269999999999362 0.5 0  -0.2799999999993897 0.5 0  -0.2899999999994175 0.5 0  -0.2999999999994452 0.5 0  -0.3099999999994729 0.5 0  -0.3199999999995007 0.5 0  -0.3299999999995284 0.5 0  -0.3399999999995562 0.5 0  -0.3499999999995839 0.5 0  -0.3599999999996116 0.5 0  -0.3699999999996393 0.5 0  -0.379999999999667 0.5 0  -0.3899999999996949 0.5 0  -0.3999999999997226 0.5 0  -0.4099999999997503 0.5 0  -0.419999999999778 0.5 0  -0.4299999999998058 0.5 0  -0.4399999999998336 0.5 0  -0.4499999999998613 0.5 0  -0.4599999999998891 0.5 0  -0.4699999999999167 0.5 0  -0.4799999999999445 0.5 0  -0.4899999999999722 0.5 0  -0.5 0.4902110204681464 0  -0.5 0.4804459958734807 0  -0.5 0.4707048677450883 0  -0.5 0.4609875815766065 0  -0.5 0.4512940759251849 0  -0.5 0.4416242912883993 0  -0.5 0.4319781678689807 0  -0.5 0.4223556545383647 0  -0.5 0.4127566896324213 0  -0.5 0.4031812128200121 0  -0.5 0.3936291733057916 0  -0.5 0.3841005081172659 0  -0.5 0.3745951585781932 0  -0.5 0.3651130778999337 0  -0.5 0.3556541993788045 0  -0.5 0.3462184677228392 0  -0.5 0.3368058273705318 0  -0.5 0.3274162224888609 0  -0.5 0.3180495969712945 0  -0.5 0.3087058944357755 0  -0.5 0.299385058222682 0  -0.5 0.2900870313927414 0  -0.5 0.2808117567250807 0  -0.5 0.2715591844628491 0  -0.5 0.2623292564012653 0  -0.5 0.253121909553727 0  -0.5 0.2439371050851549 0  -0.5 0.2347747685524501 0  -0.5 0.2256348634421331 0  -0.5 0.2165173209784076 0  -0.5 0.207422087829958 0  -0.5 0.1983491207029381 0  -0.5 0.1892983550950482 0  -0.5 0.1802697378305253 0  -0.5 0.1712632154965152 0  -0.5 0.1622787344187354 0  -0.5 0.1533162406595534 0  -0.5 0.1443756800160514 0  -0.5 0.1354569980180493 0  -0.5 0.1265601399261414 0  -0.5 0.1176850622761093 0  -0.5 0.1088317009011999 0  -0.5 0.09167500000001694 0  -0.5 0.08335000000003931 0  -0.5 0.07502500000006167 0  -0.5 0.06670000000008947 0  -0.5 0.05837500000011001 0  -0.5 0.0500500000001328 0  -0.5 0.0417250000001127 0  -0.5 0.03340000000008944 0  -0.5 0.02507500000006573 0  -0.5 0.01675000000004653 0  -0.5 0.008425000000027341 
[...]
<PointData  Scalars="f_40"> 
<DataArray  type="Float64"  Name="f_40"  format="ascii">-1.0711692263401110e-01  2.7063168934809674e-04  -2.1680403307189353e-03  -3.4237660354111946e-04  3.0300000000000000e+02  3.0300000000000000e+02  -1.4437910137577422e-07  -9.9996521209877375e-08  -3.9103577745029189e-04  -4.0783389084800509e-04  -2.8046434876535627e-06  -1.6877648420555917e-06  2.1211798013367586e-04  1.7658223110379479e-04  1.5652928342241984e-04  1.4003271675907500e-04  1.3031052877631599e-04  1.2202335398558613e-04  1.1587291456466240e-04  1.0942011650725422e-04  1.0450923372087912e-04  1.0016933959142748e-04  9.6526930848665960e-05  9.3129571077539135e-05  8.9769934799052741e-05  8.7238488534788938e-05  8.5281002207486986e-05  8.2684103725173670e-05  8.0733912312709794e-05  7.8072408399623046e-05  7.6040223372398971e-05  7.4017838946757584e-05  7.2060847720090710e-05  6.9708885533492797e-05  6.7318842078644615e-05  6.4996418403446044e-05  6.1564588076417663e-05  6.0036152546833718e-05  5.6693503695671253e-05  5.2124428138044316e-05  4.9022512695635864e-05  4.4491453417137005e-05  4.0000999616969294e-05  3.6802504505726269e-05  3.0876680979755428e-05  2.4961196667633493e-05  1.7445597179131527e-05  1.0523446527936204e-05  3.8911500761359647e-06  -4.5845332291691432e-06  -1.2492635361502790e-05  -2.1934385248545762e-05  -3.1758185324752963e-05  -4.3057282593862120e-05  -5.4444415406699825e-05  -6.7031313893611301e-05  -7.8255443465868657e-05  -9.3109810745732558e-05  -1.0500620716398116e-04  -1.2042424389474152e-04  -1.3436094319710899e-04  -1.5011097486383135e-04  -1.6547179373870523e-04  -1.8107281288260951e-04  -1.9804966359603370e-04  -2.1629120533925666e-04  -2.3216698468436707e-04  -2.4896804201538820e-04  -2.6596381250741272e-04  -2.8219647566817582e-04  -2.9960679870028078e-04  -3.1651710840998638e-04  -3.3570480900130067e-04  -3.5385162841669750e-04  -3.6961850742148016e-04  -3.8660902545116700e-04  -4.0274751378206411e-04  -4.2045054405073166e-04  -4.3929564641055255e-04  -4.5562122462526014e-04  -4.7262114567280981e-04  -4.8958378231992253e-04  -5.0688329300107530e-04  -5.2554486000289786e-04  -5.4312432527079692e-04  -5.5830383115382405e-04  -5.7535668131774307e-04  -5.9164684299986895e-04  -6.0851663422042263e-04  -6.2564894036480699e-04  -6.4453629754438033e-04  -6.6063960046404456e-04  -6.8066933376457626e-04  -6.9857257002810898e-04  -7.1722291542067828e-04  -7.3451691651585241e-04  -7.5519177290266234e-04  -7.7680830323256051e-04  -7.9913373996601928e-04  -8.2710584029526248e-04  -8.5148133226559922e-04  -8.7794903964342672e-04  -9.1389034335835812e-04  -9.5513152413075487e-04  -9.9388948845101246e-04  -1.0467336774649702e-03  -1.1176942444348053e-03  -1.2125587169178433e-03  -1.3319953439760227e-03  -1.4814219641401602e-03  -1.7564642033681130e-03  -1.5465277169571584e-03  -1.1184574819661374e-03  -9.2848600013030762e-04  -8.3191154363383853e-04  -7.7412412586762443e-04  -7.3755100454359773e-04  -7.1553940820425464e-04  -7.0111737867443254e-04  -6.8956684558752965e-04  -6.8217141968264538e-04  -6.7496590326388971e-04  -6.7013821931106207e-04  -6.6482765494415186e-04  -6.6112750708049962e-04  -6.5663473223794586e-04  -6.5281762773455420e-04  -6.4854005181123257e-04  -6.4402833662676265e-04  -6.3889099975027197e-04  -6.3380108401347611e-04  -6.2773801712095588e-04  -6.2201334463139659e-04  -6.1487272351970566e-04  -6.0706840193574922e-04  -5.9895677224724715e-04  -5.9023360951632935e-04  -5.8163823884620311e-04  -5.7259958026107120e-04  -5.6285552447009422e-04  -5.5221955609289326e-04  -5.4084241456825910e-04  -5.3053991594477739e-04  -5.1839774208675899e-04  -5.0816679126545203e-04  -4.9638090917803574e-04  -4.8533012201309805e-04  -4.7246890223823668e-04  -4.6171865158497880e-04  -4.4904058211490077e-04  -4.3940993254358178e-04  -4.2858510909399826e-04  -4.1798735855129785e-04  -3.9810835356905911e-04  -3.9058044437448780e-04  -3.8174996848655009e-04  -3.7502979290559012e-04  -3.6936274724769545e-04  -3.6070153979997507e-04  -3.5616288554066102e-04  -3.5186673612528399e-04  -3.4869963725770353e-04  -3.4555766367103368e-04  -3.4319972133993606e-04  -3.4142883495286055e-04  -3.4225603295163842e-04  -3.4295105066522926e-04  -3.4513898647893726e-04  -3.4904756597137779e-04  -3.5181728241807193e-04  -3.5604615798184294e-04  -3.6263630320700329e-04  -3.6918374197432706e-04  -3.7459898766011924e-04  -3.8234958146603860e-04  -4.0075198472099986e-04  -4.1099847547399599e-04  -4.2167936987209660e-04  -4.3139655685065176e-04  -4.4427568033175989e-04  -4.5549318525231421e-04  -4.6905905911277286e-04  -4.8110208167515439e-04  -4.9423410038485177e-04  -5.0582854911084604e-04  -5.1965690740497469e-04  -5.3185591931680467e-04  -5.4546145653922072e-04  -5.5857121907270573e-04  -5.7078160143768158e-04  -5.8262180138576392e-04  -5.9406764205341541e-04  -6.0591229244959526e-04  -6.1724100143127712e-04  -6.2845792305304710e-04  -6.3946448980425853e-04  -6.4818161518524157e-04  -6.5818029137859699e-04  -6.6596814197617199e-04  -6.7517557682643782e-04  -6.8344708412443919e-04  -6.9054645084710466e-04  -6.9648991546397492e-04  -7.0363012185750619e-04  -7.0849393915790003e-04  -7.1457297481384034e-04  -7.1916431794006458e-04  -7.2394168831702802e-04  -7.2789840785721061e-04  -7.3079527297169300e-04  -7.3510774429672921e-04  -7.3661818726281861e-04  -7.7752470249235609e-04  1.8651112626073400e-03  -1.2421204920177346e-01  7.5840203573177070e-02  -1.3806732369960550e+00  3.0300000000000000e+02  3.0300000000000000e+02  3.0300000000000000e+02  3.0300000000000000e+02  3.0300000000000000e+02  3.0300000000000000e+02  3.0300000000000000e+02  3.0300000000000000e+02  3.0300000000000000e+02  3.0300000000000000e+02  3.0300000000000000e+02  3.0300000000000000e+02  3.0300000000000000e+02  3.0300000000000000e+02  3.0300000000000000e+02  3.0300000000000000e+02  3.0300000000000000e+02  3.0300000000000000e+02  3.0300000000000000e+02  3.0300000000000000e+02  3.0300000000000000e+02  3.0300000000000000e+02  3.0300000000000000e+02  3.0300000000000000e+02  3.0300000000000000e+02  3.0300000000000000e+02  3.0300000000000000e+02  3.0300000000000000e+02  3.0300000000000000e+02  3.0300000000000000e+02  3.0300000000000000e+02  3.0300000000000000e+02  3.0300000000000000e+02  3.0300000000000000e+02  3.0300000000000000e+02  3.0300000000000000e+02  3.0300000000000000e+02  3.0300000000000000e+02  3.0300000000000000e+02  3.0300000000000000e+02  3.0300000000000000e+02  3.0300000000000000e+02  3.0300000000000000e+02  3.0300000000000000e+02  3.0300000000000000e+02  3.0300000000000000e+02  3.0300000000000000e+02  3.0300000000000000e+02  3.0300000000000000e+02  3.0300000000000000e+02  3.0300000000000000e+02  3.0300000000000000e+02  3.0300000000000000e+02  3.0300000000000000e+02  3.0300000000000000e+02  3.0300000000000000e+02  3.0300000000000000e+02  3.0300000000000000e+02  3.0300000000000000e+02  3.0300000000000000e+02  3.0300000000000000e+02  3.0300000000000000e+02  3.0300000000000000e+02  3.0300000000000000e+02  3.0300000000000000e+02  3.0300000000000000e+02  3.0300000000000000e+02  3.0300000000000000e+02  3.0300000000000000e+02  3.0300000000000000e+02  3.0300000000000000e+02  3.0300000000000000e+02  3.0300000000000000e+02  3.0300000000000000e+02  3.0300000000000000e+02  3.0300000000000000e+02  3.0300000000000000e+02  3.0300000000000000e+02  3.0300000000000000e+02  3.0300000000000000e+02  3.0300000000000000e+02  3.0300000000000000e+02  3.0300000000000000e+02  3.0300000000000000e+02  3.0300000000000000e+02  3.0300000000000000e+02  3.0300000000000000e+02  3.0300000000000000e+02  3.0300000000000000e+02  3.0300000000000000e+02  3.0300000000000000e+02  3.0300000000000000e+02  3.0300000000000000e+02  3.0300000000000000e+02  3.0300000000000000e+02  3.0300000000000000e+02  3.0300000000000000e+02  3.0300000000000000e+02  3.0300000000000000e+02  -8.9928342009903406e-01  8.8410963634347597e-02  -8.4515801703265725e-02  1.6764324442658399e-03  1.0414794024584524e-04  1.2370735537398859e-04  1.2203634656732484e-04  1.1998254629182264e-04  1.1745831783631833e-04  1.1488188492549375e-04  1.1228460341898474e-04  1.0917011513079715e-04  1.0536491273147523e-04  1.0270444606968138e-04  9.8349481649984534e-05  9.4925784496140456e-05  9.1111516668154212e-05  8.6556678075141503e-05  8.2672685982334342e-05  7.7763264318149000e-05  7.4335849845126738e-05  6.8975032429319927e-05  6.4672323445487699e-05  6.0239736520648442e-05  5.5121689986428198e-05  5.0613027829365858e-05  4.6411489941811263e-05  4.2743053308518075e-05  3.7331846467571701e-05  3.3597284384481469e-05  2.8445256939727550e-05  2.5007435729829340e-05  2.2023905486606169e-05  1.7609413679406581e-05  1.4540030739392290e-05  1.1425036809652740e-05  8.7130311751490350e-06  5.8807216433581138e-06  3.6428160792882996e-06  1.9809560165817480e-06  3.6374345274975622e-07  -7.7405303825594067e-07  -2.4518653046713262e-06  -2.6421927286362015e-06  -2.7760069589747827e-06  -2.5839120315164234e-06  -2.2737638890320817e-06  -1.9217899427500342e-06  -1.4877224910900526e-06  -9.5042514340320068e-07  -5.7894814601761514e-07  -3.8020968520948910e-07  -1.8350376133418921e-07  -4.8959857846701815e-07  -1.3789059913943651e-06  -2.2299205804369717e-06  -3.2376696691879675e-06  -4.3364842801802525e-06  -5.3218472159437754e-06  -6.0695312648062822e-06  -6.5129071871749054e-06  -6.4595845487931441e-06  -5.6376947781999715e-06  -5.0131106969748894e-06  -4.1827894868316815e-06  -1.9918242781657600e-06  -5.5104677843136176e-07  1.4053208869130637e-06  4.6683964536248789e-06  6.5084208862330594e-06  9.5997306288993113e-06  1.4092198886342023e-05  1.6807171023026585e-05  2.0142930027238843e-05  2.5752195476864184e-05  2.8147799024867626e-05  3.2730497219079759e-05  3.9752101527927655e-05  4.3387034647763679e-05  4.7974330872297265e-05  5.5917668273958916e-05  5.8074978611110163e-05  6.3854939902685672e-05  7.3765004349061322e-05  7.7517800423601785e-05  8.3017720972915099e-05  9.3598982025175270e-05  9.4436413190583584e-05  1.0110502427071620e-04  1.1469050411606270e-04  1.1674143753337204e-04  1.2268890488376970e-04  1.3690250812690345e-04  1.3323615705847772e-04  1.3782133916093270e-04  1.5564917505959844e-04  1.4618950411540048e-04  1.4453958909107392e-04  1.6098474381019511e-04  1.2469917891023055e-04  1.0153999137981281e-04  1.2090708420597024e-04  5.1302399003993289e-05  4.3063974215819850e-05  2.7858891922150235e-05  2.4506700523479699e-04  2.2567491929839389e-03  -2.9181690058792311e-02  -2.7091307109242207e-03  1.9109760287076673e-03  -1.5375669983150043e-04  -2.2497828298756692e-04  -1.4713608577331322e-04  -1.0003725141447479e-04  2.3369150939263771e-06  7.1069548870969737e-06  4.1871013404030835e-05  8.2244332091077694e-05  7.5252884316307563e-05  8.3604478743606344e-05  9.7405997326591477e-05  8.6882575365024653e-05  8.6179067655214821e-05  9.1555025108537780e-05  8.1539547646231091e-05  7.8428771374278216e-05  7.8338309769478915e-05  6.8546392354839933e-05  6.4235239788276634e-05  6.3991647174452745e-05  5.5767456988468615e-05  5.1529681041562216e-05  4.9242908038503859e-05  4.1872669664116187e-05  3.7658761143121083e-05  3.5897641243077984e-05  2.9680744722397838e-05  2.6125763402280174e-05  2.3634479586406152e-05  1.8529583593044114e-05  1.5271040220694031e-05  1.3466278165798912e-05  9.2415575643028740e-06  6.8377263532619297e-06  5.0525625330516428e-06  2.0315558243825175e-06  4.1575752636023939e-08  -1.1246297279390137e-06  -3.2669629434182625e-06  -4.3761093229544317e-06  -5.1169021043197660e-06  -6.3243657138285206e-06  -6.5906171457776185e-06  -6.6676668891433343e-06  -6.8255496059761415e-06  -6.3822152312468097e-06  -5.8248482318506403e-06  -4.8948162524481764e-06  -3.8091618805194392e-06  -2.6980452728210872e-06  -1.7903591548727706e-06  -1.0682271550791164e-06  -3.6088000617489802e-07  -1.3290267985941557e-07  -2.9648513736215790e-07  -4.6533778255325520e-07  -7.8871783255947475e-07  -1.2799036971358905e-06  -1.7001014608300485e-06  -2.1314278489311038e-06  -2.5496379671828362e-06  -2.8801968071969673e-06  -3.0132226507471242e-06  -3.1208132188356142e-06  -2.4202483227956704e-06  -1.8742708022947740e-06  -8.5004088480002303e-07  9.0654858653706810e-08  1.5195892090630421e-06  3.3689796528324281e-06  5.1432273500283930e-06  7.2536967320960511e-06  9.2796148357838839e-06  1.2373444924813067e-05  1.4469241597411522e-05  1.6890735864858515e-05  2.0543383906418530e-05  2.3191043613176817e-05  2.7104054470123165e-05  2.9663806959872622e-05  3.2749150990618826e-05  3.6083224595469596e-05  3.9816732833617032e-05  4.3020262973937505e-05  4.6289919759422402e-05  5.0227249890433120e-05  5.2739349690749438e-05  5.6612220781499175e-05  5.9584680146438055e-05  6.3211661451989320e-05  6.6227357034563997e-05  6.9297117933819473e-05  7.3027254908651117e-05  7.5439937704167414e-05  7.9349522712380489e-05  8.2341639820347301e-05  8.5687692140393550e-05  8.9607343247823446e-05  9.3503589739951564e-05  9.7433817103966534e-05  1.0268477795622916e-04  1.0952118085366315e-04  1.1858463926507083e-04  1.2994537069446508e-04  1.5115086326377385e-04  2.0071162792136839e-04  3.3736973075904347e-07  3.0615948693968290e-06  5.4849772797217189e-06  7.6152837890141134e-06  9.9374313369320684e-06  1.1848151825495785e-05  1.4163287862986930e-05  1.5932228654027433e-05  1.7894830804548589e-05  2.0292362860669814e-05  2.2231567758106342e-05  2.4594230253689909e-05  2.6720927240210149e-05  2.9066334829906733e-05  3.2184899440007346e-05  3.4519252960091756e-05  3.8037503630905590e-05  4.0784183142911353e-05  4.3407477397127397e-05  4.8013036138276320e-05  5.1240631187229054e-05  5.5272992202996598e-05  5.9370988048566699e-05  6.4234515783636472e-05  6.9582726141140597e-05  7.4616529563441755e-05  8.0615949717419995e-05  8.7211839127235391e-05  9.3997841063372500e-05  1.0042245420603583e-04  1.0955560817272121e-04  1.1884819722049204e-04  1.2700493326135703e-04  1.3875847702621931e-04  1.4877866410515711e-04  1.6184317069056807e-04  1.7676365729123937e-04  1.9181914112366839e-04  2.0863709502517519e-04  2.3181010837169326e-04  2.4867969330785337e-04  2.7422831153774201e-04  3.0423083704808412e-04  3.3029887824795887e-04  3.6706361905365208e-04  4.1250814290497221e-04  4.3999687888491564e-04  4.9294821799438318e-04  5.4296364592487266e-04  5.6771843873742068e-04  6.3449592588390839e-04  6.6921156266112642e-04  7.2166338697158855e-04  7.5929065003820450e-04  7.4607606382588363e-04  7.6709510542798901e-04  7.2949495112838939e-04  6.3572963468142311e-04  5.7503570308039414e-04  4.0010890928598384e-04  2.4030501231757216e-04  6.3483188199869278e-05  -1.5365554045904806e-04  -3.4481913945084964e-04  -4.8241542170985333e-04  -6.3134564269294862e-04  -7.2738183366947496e-04  -8.2290130198155718e-04  -8.6872152877562813e-04  -9.1141597585831999e-04  -9.3630193581574104e-04  -9.5886533894987374e-04  -9.5441315725801974e-04  -9.4671332024125470e-04  -9.4442622096266087e-04  -9.3351874115061933e-04  -9.1210841684200190e-04  -9.0313759221973271e-04  -8.7963740156370900e-04  -8.5891780372493248e-04  -8.4755851433662927e-04  -8.2446613547814567e-04  -8.0609225505782610e-04  -7.8676302082318096e-04  -7.6810335802050659e-04  -7.5220140575606371e-04  -7.3511336342357294e-04  -7.1887333247411635e-04  -7.0241114153393313e-04  -6.8687515306075134e-04  -6.7306358050718811e-04  -6.5847584728987644e-04  -6.4392667215486287e-04  -6.2986280451044266e-04  -6.1614497296741031e-04  -6.0335398828259372e-04  -5.9067825224808827e-04  -5.7744523349856304e-04  -5.6394335588180820e-04  -5.5132659159829085e-04  -5.3842426243474713e-04  -5.2491099118858267e-04  -5.1205794134375230e-04  -4.9984032599746826e-04  -4.8584590483260191e-04  -4.7349399509223091e-04  -4.5899502402507405e-04  -4.4487231997184093e-04  -4.3145065329114839e-04  -4.1675668635840463e-04  -4.0220628489340645e-04  -1.1556622419452862e-06  1.0954980266960288e-06  3.0741834106773078e-06  4.8868209873376531e-06  6.7943880167510796e-06  8.4438166554785697e-06  1.0373054015524716e-05  1.1884055798389081e-05  1.3581056451336645e-05  1.5591107862574975e-05  1.7225091789157664e-05  1.9252410963988779e-05  2.1053565535051484e-05  2.3036854282052655e-05  2.5642961502674289e-05  2.7599655245948206e-05  3.0576794743814636e-05  3.2993769997947870e-05  3.5072328058980798e-05  3.9026119852737715e-05  4.1773836803457427e-05  4.5156242726434776e-05  4.8741869699497172e-05  5.2809804879185377e-05  5.7315377505790614e-05  6.1678360414607096e-05  6.6768888639005014e-05  7.2399539013908400e-05  7.8474285213084427e-05  8.4094198986772695e-05  9.1783623206375650e-05  9.9990573948178531e-05  1.0696934262725484e-04  1.1728427678669969e-04  1.2631910386569882e-04  1.3775578930101854e-04  1.5082754971248262e-04  1.6430510894187533e-04  1.7924512502527756e-04  1.9996850785917008e-04  2.1506969988839761e-04  2.3855289482916368e-04  2.6609128888245098e-04  2.9082779009129302e-04  3.2437206011842219e-04  3.6652866317793696e-04  3.9447472877374807e-04  4.4422358230439962e-04  4.9383030176889482e-04  5.2240655953871115e-04  5.8954386274928303e-04  6.3339678847597336e-04  6.9319695295769223e-04  7.4725363042785849e-04  7.5931148125433557e-04  7.9847012735979807e-04  8.0129523925958582e-04  7.3975564653085677e-04  7.1763108592606513e-04  5.8171559922033287e-04  4.4688709934828424e-04  2.9191180513542947e-04  8.7717413990488931e-05  -1.0678095328135265e-04  -2.4796153651670898e-04  -4.1544212570429216e-04  -5.2074761116435372e-04  -6.3899503045620814e-04  -7.0107822783702165e-04  -7.6397939822999274e-04  -8.0569801319173013e-04  -8.4344084006530051e-04  -8.5434507824304156e-04  -8.6003303692165601e-04  -8.6856559325250297e-04  -8.6884089094293364e-04  -8.5565165165220108e-04  -8.5511551291393836e-04  -8.3833833814629590e-04  -8.2373633282350242e-04  -8.1777536920316985e-04  -7.9941486454308233e-04  -7.8515657905562871e-04  -7.6986045469430004e-04  -7.5384858464201828e-04  -7.4069891409522435e-04  -7.2594591685563013e-04  -7.1230616730103685e-04  -6.9755093061815894e-04  -6.8338241379097464e-04  -6.7066346554713887e-04  -6.5777315427212606e-04  -6.4410505016150566e-04  -6.3167387240155282e-04  -6.1818407694655267e-04  -6.0640537015768149e-04  -5.9501771867011765e-04  -5.8198108956291771e-04  -5.6947942823867305e-04  -5.5741182151507033e-04  -5.4517992945578796e-04  -5.3227406341874845e-04  -5.2012860977446293e-04  -5.0883694042211174e-04  -4.9540391879306523e-04  -4.8409747402331074e-04  -4.7019101764926151e-04  -4.5728749583756514e-04  -4.4492360308419983e-04  -4.3127969365592617e-04  -4.1793059164012887e-04  -1.2288585273132198e-01  -6.8457745716785368e-02  -3.9350997955652181e-02  -2.4086968660520930e-02  -1.6372677710744001e-02  -1.1391318597441509e-02  -8.1851673507757610e-03  -6.3240488292805553e-03  -4.9648930527511539e-03  -4.0676756621342213e-03  -3.4217502660264828e-03  -2.8965298593648381e-03  -2.5227834522329072e-03  -2.2148538384544692e-03  -1.9865310298257609e-03  -1.7882936038990189e-03  -1.6392777533547167e-03  -1.5158185262002775e-03  -1.4027286969697185e-03  -1.3087413970726590e-03  -1.2337144168982502e-03  -1.1564287641116968e-03  -1.1005459015799414e-03  -1.0500219931815764e-03  -9.9913291195623168e-04  -9.5510669683324871e-04  -9.1640965040850394e-04  -8.8224328620749054e-04  -8.5123130723024649e-04  -8.2053184207841925e-04  -7.9383845419174405e-04  -7.6760129734144739e-04  -7.4394884516122760e-04  -7.2172950236920608e-04  -7.0170985443365199e-04  -6.8182971933581249e-04  -6.6222305171945812e-04  -6.4334151861477360e-04  -6.2564723662789134e-04  -6.0928220374568455e-04  -5.9230066284560981e-04  -5.7538641811629571e-04  -5.5970733300465532e-04  -5.4361236219432126e-04  -5.2830253361798815e-04  -5.1163820481070249e-04  -4.9505504497752355e-04  -4.7946828810452172e-04  -4.6272110066400326e-04  -4.4608730721227636e-04  -4.2886436289582634e-04  -4.1193750518404658e-04  -3.9338753046011001e-04  -3.7566163038460672e-04  -3.5613364895139746e-04  -3.2767625685911617e-05  4.4383365812721191e-05  -2.8800113368236473e-04  -5.3334494200715852e-04  -7.26537