<?xml version="1.0"?>
<VTKFile type="UnstructuredGrid"  version="0.1"  >
<UnstructuredGrid>
<Piece  NumberOfPoints="12492" NumberOfCells="24902">
<Points>
<DataArray  type="Float64"  NumberOfComponents="3"  format="ascii">-0.5 0.5 0  0.5 0.5 0  0.5 -0.5 0  -0.5 -0.5 0  -0.25 0 0  0.25 0 0  -0.4500000000001387 0.5 0  -0.4000000000002774 0.5 0  -0.3500000000004161 0.5 0  -0.3000000000005548 0.5 0  -0.2500000000006935 0.5 0  -0.2000000000008322 0.5 0  -0.1500000000009709 0.5 0  -0.1000000000011096 0.5 0  -0.05000000000124821 0.5 0  -1.376121439022882e-12 0.5 0  0.04999999999875171 0.5 0  0.09999999999889042 0.5 0  0.1499999999990291 0.5 0  0.1999999999991677 0.5 0  0.2499999999993064 0.5 0  0.2999999999994452 0.5 0  0.349999999999584 0.5 0  0.3999999999997227 0.5 0  0.4499999999998613 0.5 0  0.5 0.4500000000001387 0  0.5 0.4000000000002774 0  0.5 0.3500000000004161 0  0.5 0.3000000000005548 0  0.5 0.2500000000006935 0  0.5 0.2000000000008322 0  0.5 0.1500000000009709 0  0.5 0.1000000000011096 0  0.5 0.05000000000124821 0  0.5 1.376121439022882e-12 0  0.5 -0.04999999999875171 0  0.5 -0.09999999999889042 0  0.5 -0.1499999999990291 0  0.5 -0.1999999999991677 0  0.5 -0.2499999999993064 0  0.5 -0.2999999999994452 0  0.5 -0.349999999999584 0  0.5 -0.3999999999997227 0  0.5 -0.4499999999998613 0  0.4500000000001387 -0.5 0  0.4000000000002774 -0.5 0  0.3500000000004161 -0.5 0  0.3000000000005548 -0.5 0  0.2500000000006935 -0.5 0  0.2000000000008322 -0.5 0  0.1500000000009709 -0.5 0  0.1000000000011096 -0.5 0  0.05000000000124821 -0.5 0  1.376121439022882e-12 -0.5 0  -0.04999999999875171 -0.5 0  -0.09999999999889042 -0.5 0  -0.1499999999990291 -0.5 0  -0.1999999999991677 -0.5 0  -0.2499999999993064 -0.5 0  -0.2999999999994452 -0.5 0  -0.349999999999584 -0.5 0  -0.3999999999997227 -0.5 0  -0.4499999999998613 -0.5 0  -0.5 -0.4500000000001387 0  -0.5 -0.4000000000002774 0  -0.5 -0.3500000000004161 0  -0.5 -0.3000000000005548 0  -0.5 -0.2500000000006935 0  -0.5 -0.2000000000008322 0  -0.5 -0.1500000000009709 0  -0.5 -0.1000000000011096 0  -0.5 -0.05000000000124821 0  -0.5 -1.376121439022882e-12 0  -0.5 0.04999999999875171 0  -0.5 0.09999999999889042 0  -0.5 0.1499999999990291 0  -0.5 0.1999999999991677 0  -0.5 0.2499999999993064 0  -0.5 0.2999999999994452 0  -0.5 0.349999999999584 0  -0.5 0.3999999999997227 0  -0.5 0.4499999999998613 0  -0.2490000000000028 0 0  -0.2480000000000055 0 0  -0.2470000000000083 0 0  -0.2460000000000111 0 0  -0.2450000000000139 0 0  -0.2440000000000167 0 0  -0.2430000000000195 0 0  -0.2420000000000222 0 0  -0.241000000000025 0 0  -0.2400000000000278 0 0  -0.2390000000000305 0 0  -0.2380000000000333 0 0  -0.2370000000000361 0 0  -0.2360000000000389 0 0  -0.2350000000000417 0 0  -0.2340000000000445 0 0  -0.2330000000000472 0 0  -0.23200000000005 0 0  -0.2310000000000528 0 0  -0.2300000000000555 0 0  -0.2290000000000583 0 0  -0.2280000000000611 0 0  -0.2270000000000639 0 0  -0.2260000000000667 0 0  -0.2250000000000695 0 0  -0.2240000000000722 0 0  -0.223000000000075 0 0  -0.2220000000000778 0 0  -0.2210000000000806 0 0  -0.2200000000000834 0 0  -0.2190000000000861 0 0  -0.2180000000000889 0 0  -0.2170000000000917 0 0  -0.2160000000000944 0 0  -0.2150000000000972 0 0  -0.2140000000001 0 0  -0.2130000000001028 0 0  -0.2120000000001056 0 0  -0.2110000000001084 0 0  -0.2100000000001111 0 0  -0.2090000000001139 0 0  -0.2080000000001167 0 0  -0.2070000000001194 0 0  -0.2060000000001223 0 0  -0.205000000000125 0 0  -0.2040000000001278 0 0  -0.2030000000001306 0 0  -0.2020000000001334 0 0  -0.2010000000001361 0 0  -0.2000000000001389 0 0  -0.1990000000001417 0 0  -0.1980000000001444 0 0  -0.1970000000001473 0 0  -0.19600000000015 0 0  -0.1950000000001528 0 0  -0.1940000000001556 0 0  -0.1930000000001584 0 0  -0.1920000000001612 0 0  -0.1910000000001639 0 0  -0.1900000000001667 0 0  -0.1890000000001695 0 0  -0.1880000000001723 0 0  -0.187000000000175 0 0  -0.1860000000001778 0 0  -0.1850000000001806 0 0  -0.1840000000001834 0 0  -0.1830000000001861 0 0  -0.1820000000001889 0 0  -0.1810000000001917 0 0  -0.1800000000001945 0 0  -0.1790000000001973 0 0  -0.1780000000002 0 0  -0.1770000000002028 0 0  -0.1760000000002056 0 0  -0.1750000000002084 0 0  -0.1740000000002112 0 0  -0.1730000000002139 0 0  -0.1720000000002167 0 0  -0.1710000000002195 0 0  -0.1700000000002223 0 0  -0.169000000000225 0 0  -0.1680000000002278 0 0  -0.1670000000002306 0 0  -0.1660000000002333 0 0  -0.1650000000002361 0 0  -0.1640000000002389 0 0  -0.1630000000002417 0 0  -0.1620000000002445 0 0  -0.1610000000002473 0 0  -0.1600000000002501 0 0  -0.1590000000002528 0 0  -0.1580000000002556 0 0  -0.1570000000002584 0 0  -0.1560000000002612 0 0  -0.1550000000002639 0 0  -0.1540000000002667 0 0  -0.1530000000002695 0 0  -0.1520000000002723 0 0  -0.151000000000275 0 0  -0.1500000000002778 0 0  -0.1490000000002806 0 0  -0.1480000000002834 0 0  -0.1470000000002862 0 0  -0.1460000000002889 0 0  -0.1450000000002917 0 0  -0.1440000000002945 0 0  -0.1430000000002973 0 0  -0.1420000000003001 0 0  -0.1410000000003028 0 0  -0.1400000000003056 0 0  -0.1390000000003084 0 0  -0.1380000000003112 0 0  -0.1370000000003139 0 0  -0.1360000000003167 0 0  -0.1350000000003195 0 0  -0.1340000000003223 0 0  -0.1330000000003251 0 0  -0.1320000000003278 0 0  -0.1310000000003306 0 0  -0.1300000000003334 0 0  -0.1290000000003362 0 0  -0.128000000000339 0 0  -0.1270000000003417 0 0  -0.1260000000003445 0 0  -0.1250000000003473 0 0  -0.1240000000003501 0 0  -0.1230000000003528 0 0  -0.1220000000003556 0 0  -0.1210000000003584 0 0  -0.1200000000003612 0 0  -0.119000000000364 0 0  -0.1180000000003667 0 0  -0.1170000000003695 0 0  -0.1160000000003722 0 0  -0.1150000000003751 0 0  -0.1140000000003778 0 0  -0.1130000000003806 0 0  -0.1120000000003834 0 0  -0.1110000000003862 0 0  -0.1100000000003889 0 0  -0.1090000000003917 0 0  -0.1080000000003945 0 0  -0.1070000000003972 0 0  -0.1060000000004 0 0  -0.1050000000004028 0 0  -0.1040000000004056 0 0  -0.1030000000004083 0 0  -0.1020000000004111 0 0  -0.1010000000004139 0 0  -0.1000000000004166 0 0  -0.09900000000041945 0 0  -0.09800000000042219 0 0  -0.097000000000425 0 0  -0.09600000000042774 0 0  -0.09500000000043055 0 0  -0.09400000000043332 0 0  -0.09300000000043609 0 0  -0.09200000000043887 0 0  -0.09100000000044162 0 0  -0.09000000000044442 0 0  -0.08900000000044717 0 0  -0.08800000000044997 0 0  -0.08700000000045272 0 0  -0.08600000000045552 0 0  -0.08500000000045829 0 0  -0.08400000000046107 0 0  -0.08300000000046384 0 0  -0.08200000000046659 0 0  -0.08100000000046939 0 0  -0.08000000000047214 0 0  -0.07900000000047494 0 0  -0.07800000000047769 0 0  -0.07700000000048049 0 0  -0.07600000000048326 0 0  -0.07500000000048604 0 0  -0.07400000000048881 0 0  -0.07300000000049159 0 0  -0.07200000000049436 0 0  -0.07100000000049711 0 0  -0.07000000000049991 0 0  -0.06900000000050266 0 0  -0.06800000000050546 0 0  -0.06700000000050824 0 0  -0.06600000000051101 0 0  -0.06500000000051379 0 0  -0.06400000000051656 0 0  -0.06300000000051934 0 0  -0.06200000000052208 0 0  -0.06100000000052488 0 0  -0.06000000000052763 0 0  -0.05900000000053043 0 0  -0.05800000000053318 0 0  -0.05700000000053598 0 0  -0.05600000000053876 0 0  -0.05500000000054153 0 0  -0.05400000000054431 0 0  -0.05300000000054705 0 0  -0.05200000000054986 0 0  -0.0510000000005526 0 0  -0.05000000000055541 0 0  -0.04900000000055815 0 0  -0.04800000000056096 0 0  -0.04700000000056373 0 0  -0.0460000000005665 0 0  -0.04500000000056928 0 0  -0.04400000000057203 0 0  -0.04300000000057483 0 0  -0.04200000000057758 0 0  -0.04100000000058038 0 0  -0.04000000000058312 0 0  -0.03900000000058593 0 0  -0.0380000000005887 0 0  -0.03700000000059148 0 0  -0.03600000000059425 0 0  -0.035000000000597 0 0  -0.0340000000005998 0 0  -0.03300000000060255 0 0  -0.03200000000060535 0 0  -0.0310000000006081 0 0  -0.0300000000006109 0 0  -0.02900000000061367 0 0  -0.02800000000061645 0 0  -0.02700000000061922 0 0  -0.026000000000622 0 0  -0.02500000000062477 0 0  -0.02400000000062752 0 0  -0.02300000000063032 0 0  -0.02200000000063307 0 0  -0.02100000000063587 0 0  -0.02000000000063865 0 0  -0.01900000000064142 0 0  -0.0180000000006442 0 0  -0.01700000000064697 0 0  -0.01600000000064974 0 0  -0.01500000000065249 0 0  -0.01400000000065529 0 0  -0.01300000000065804 0 0  -0.01200000000066084 0 0  -0.01100000000066362 0 0  -0.01000000000066639 0 0  -0.009000000000669167 0 0  -0.008000000000671942 0 0  -0.007000000000674717 0 0  -0.006000000000677463 0 0  -0.005000000000680266 0 0  -0.004000000000683013 0 0  -0.003000000000684566 0 0  -0.002000000000685953 0 0  -0.00100000000068734 0 0  -6.887546089018315e-13 0 0  0.0009999999993126618 0 0  0.00199999999931405 0 0  0.002999999999315439 0 0  0.003999999999316939 0 0  0.004999999999319715 0 0  0.005999999999322492 0 0  0.006999999999325268 0 0  0.007999999999327989 0 0  0.008999999999330766 0 0  0.009999999999333598 0 0  0.01099999999933637 0 0  0.01199999999933909 0 0  0.01299999999934193 0 0  0.0139999999993447 0 0  0.01499999999934748 0 0  0.0159999999993502 0 0  0.01699999999935303 0 0  0.01799999999935581 0 0  0.01899999999935853 0 0  0.01999999999936136 0 0  0.02099999999936414 0 0  0.02199999999936691 0 0  0.02299999999936964 0 0  0.02399999999937247 0 0  0.02499999999937524 0 0  0.02599999999937797 0 0  0.0269999999993808 0 0  0.02799999999938357 0 0  0.02899999999938635 0 0  0.02999999999938907 0 0  0.0309999999993919 0 0  0.03199999999939468 0 0  0.03299999999939746 0 0  0.03399999999940023 0 0  0.03499999999940301 0 0  0.03599999999940579 0 0  0.03699999999940851 0 0  0.03799999999941134 0 0  0.03899999999941411 0 0  0.03999999999941689 0 0  0.04099999999941967 0 0  0.04199999999942244 0 0  0.04299999999942522 0 0  0.04399999999942794 0 0  0.04499999999943077 0 0  0.04599999999943355 0 0  0.04699999999943633 0 0  0.0479999999994391 0 0  0.04899999999944188 0 0  0.04999999999944466 0 0  0.05099999999944743 0 0  0.05199999999945021 0 0  0.0529
[...]
<PointData  Scalars="f_41"> 
<DataArray  type="Float64"  Name="f_41"  format="ascii">-1.4672419282383239e-03  1.9340680771515600e-02  4.2333817620284819e-02  3.7574864616944322e-03  3.0300000000000000e+02  -6.4454428716615206e+00  -7.7553884928923810e-04  2.3391839066547028e-04  9.1611582321418422e-04  1.7149871547269891e-03  2.5738227850079657e-03  3.6503730508221973e-03  4.5113767246690202e-03  5.5332020309299210e-03  6.6133242796314034e-03  7.8269190697968383e-03  8.9356943582337544e-03  9.8197875642855644e-03  1.1403075050617641e-02  1.2852175323959427e-02  1.3684343290257975e-02  1.4716690787218281e-02  1.5008208843555077e-02  1.6410082411741241e-02  1.7456090355972675e-02  1.9154436605465383e-02  1.8169084331450491e-02  1.4422370662848268e-02  9.0377935487099634e-03  2.0860622953081370e-03  -1.4686397505681750e-02  -2.3001497976412849e-02  -2.4387782044996462e-02  -9.9910833660318502e-03  -9.9959952585657193e-04  -1.1603885533489825e-02  -2.4370153169391718e-02  -2.8826735549092580e-02  -1.3502853545147147e-02  -2.9769266950640076e-03  5.5910149639213612e-03  1.3898792157627479e-02  1.7340347705943122e-02  2.5055045469359247e-02  2.8947595639769886e-02  2.5219793643336742e-02  2.3050759688846387e-02  2.2764184098670922e-02  2.2052291350201206e-02  1.9524208776573498e-02  1.7856411050782357e-02  1.5249698970092516e-02  1.2137094151650761e-02  9.8598699006756489e-03  7.7572567958147098e-03  5.7073599704436416e-03  4.4136479613489854e-03  3.1210156728369905e-03  2.8009598191058660e-03  2.2460893512030703e-03  2.1024215633539023e-03  2.0008607023569661e-03  2.4982087344471451e-03  2.0191513139301179e-03  1.1741053866960182e-03  7.1496565895401085e-04  7.2045416175242627e-04  8.2759524058983005e-04  1.9973601850444938e-04  -6.5772630333399307e-05  -5.3290785690369524e-04  -2.9451293224827362e-04  1.9533122003214283e-03  2.0045165230464972e-03  3.6136965225220640e-04  -7.1700493279942086e-04  -1.1515821823221133e-03  -1.3918827979701820e-03  -1.1924205435670488e-03  -1.5043815715508658e-03  -1.4949367705129144e-03  -1.5407316762042246e-03  3.0300000000000000e+02  3.0300000000000000e+02  3.0300000000000000e+02  3.0300000000000000e+02  3.0300000000000000e+02  3.0300000000000000e+02  3.0300000000000000e+02  3.0300000000000000e+02  3.0300000000000000e+02  3.0300000000000000e+02  3.0300000000000000e+02  3.0300000000000000e+02  3.0300000000000000e+02  3.0300000000000000e+02  3.0300000000000000e+02  3.0300000000000000e+02  3.0300000000000000e+02  3.0300000000000000e+02  3.0300000000000000e+02  3.0300000000000000e+02  3.0300000000000000e+02  3.0300000000000000e+02  3.0300000000000000e+02  3.0300000000000000e+02  3.0300000000000000e+02  3.0300000000000000e+02  3.0300000000000000e+02  3.0300000000000000e+02  3.0300000000000000e+02  3.0300000000000000e+02  3.0300000000000000e+02  3.0300000000000000e+02  3.0300000000000000e+02  3.0300000000000000e+02  3.0300000000000000e+02  3.0300000000000000e+02  3.0300000000000000e+02  3.0300000000000000e+02  3.0300000000000000e+02  3.0300000000000000e+02  3.0300000000000000e+02  3.0300000000000000e+02  3.0300000000000000e+02  3.0300000000000000e+02  3.0300000000000000e+02  3.0300000000000000e+02  3.0300000000000000e+02  3.0300000000000000e+02  3.0300000000000000e+02  3.0300000000000000e+02  3.0300000000000000e+02  3.0300000000000000e+02  3.0300000000000000e+02  3.0300000000000000e+02  3.0300000000000000e+02  3.0300000000000000e+02  3.0300000000000000e+02  3.0300000000000000e+02  3.0300000000000000e+02  3.0300000000000000e+02  3.0300000000000000e+02  3.0300000000000000e+02  3.0300000000000000e+02  3.0300000000000000e+02  3.0300000000000000e+02  3.0300000000000000e+02  3.0300000000000000e+02  3.0300000000000000e+02  3.0300000000000000e+02  3.0300000000000000e+02  3.0300000000000000e+02  3.0300000000000000e+02  3.0300000000000000e+02  3.0300000000000000e+02  3.0300000000000000e+02  3.0300000000000000e+02  3.0300000000000000e+02  3.0300000000000000e+02  3.0300000000000000e+02  3.0300000000000000e+02  3.0300000000000000e+02  3.0300000000000000e+02  3.0300000000000000e+02  3.0300000000000000e+02  3.0300000000000000e+02  3.0300000000000000e+02  3.0300000000000000e+02  3.0300000000000000e+02  3.0300000000000000e+02  3.0300000000000000e+02  3.0300000000000000e+02  3.0300000000000000e+02  3.0300000000000000e+02  3.0300000000000000e+02  3.0300000000000000e+02  3.0300000000000000e+02  3.0300000000000000e+02  3.0300000000000000e+02  3.0300000000000000e+02  3.0300000000000000e+02  3.0300000000000000e+02  3.0300000000000000e+02  3.0300000000000000e+02  3.0300000000000000e+02  3.0300000000000000e+02  3.0300000000000000e+02  3.0300000000000000e+02  3.0300000000000000e+02  3.0300000000000000e+02  3.0300000000000000e+02  3.0300000000000000e+02  3.0300000000000000e+02  3.0300000000000000e+02  3.0300000000000000e+02  3.0300000000000000e+02  3.0300000000000000e+02  3.0300000000000000e+02  3.0300000000000000e+02  3.0300000000000000e+02  3.0300000000000000e+02  3.0300000000000000e+02  3.0300000000000000e+02  3.0300000000000000e+02  3.0300000000000000e+02  3.0300000000000000e+02  3.0300000000000000e+02  3.0300000000000000e+02  3.0300000000000000e+02  3.0300000000000000e+02  3.0300000000000000e+02  3.0300000000000000e+02  3.0300000000000000e+02  3.0300000000000000e+02  3.0300000000000000e+02  3.0300000000000000e+02  3.0300000000000000e+02  3.0300000000000000e+02  3.0300000000000000e+02  3.0300000000000000e+02  3.0300000000000000e+02  3.0300000000000000e+02  3.0300000000000000e+02  3.0300000000000000e+02  3.0300000000000000e+02  3.0300000000000000e+02  3.0300000000000000e+02  3.0300000000000000e+02  3.0300000000000000e+02  3.0300000000000000e+02  3.0300000000000000e+02  3.0300000000000000e+02  3.0300000000000000e+02  3.0300000000000000e+02  3.0300000000000000e+02  3.0300000000000000e+02  3.0300000000000000e+02  3.0300000000000000e+02  3.0300000000000000e+02  3.0300000000000000e+02  3.0300000000000000e+02  3.0300000000000000e+02  3.0300000000000000e+02  3.0300000000000000e+02  3.0300000000000000e+02  3.0300000000000000e+02  3.0300000000000000e+02  3.0300000000000000e+02  3.0300000000000000e+02  3.0300000000000000e+02  3.0300000000000000e+02  3.0300000000000000e+02  3.0300000000000000e+02  3.0300000000000000e+02  3.0300000000000000e+02  3.0300000000000000e+02  3.0300000000000000e+02  3.0300000000000000e+02  3.0300000000000000e+02  3.0300000000000000e+02  3.0300000000000000e+02  3.0300000000000000e+02  3.0300000000000000e+02  3.0300000000000000e+02  3.0300000000000000e+02  3.0300000000000000e+02  3.0300000000000000e+02  3.0300000000000000e+02  3.0300000000000000e+02  3.0300000000000000e+02  3.0300000000000000e+02  3.0300000000000000e+02  3.0300000000000000e+02  3.0300000000000000e+02  3.0300000000000000e+02  3.0300000000000000e+02  3.0300000000000000e+02  3.0300000000000000e+02  3.0300000000000000e+02  3.0300000000000000e+02  3.0300000000000000e+02  3.0300000000000000e+02  3.0300000000000000e+02  3.0300000000000000e+02  3.0300000000000000e+02  3.0300000000000000e+02  3.0300000000000000e+02  3.0300000000000000e+02  3.0300000000000000e+02  3.0300000000000000e+02  3.0300000000000000e+02  3.0300000000000000e+02  3.0300000000000000e+02  3.0300000000000000e+02  3.0300000000000000e+02  3.0300000000000000e+02  3.0300000000000000e+02  3.0300000000000000e+02  3.0300000000000000e+02  3.0300000000000000e+02  3.0300000000000000e+02  3.0300000000000000e+02  3.0300000000000000e+02  3.0300000000000000e+02  3.0300000000000000e+02  3.0300000000000000e+02  3.0300000000000000e+02  3.0300000000000000e+02  3.0300000000000000e+02  3.0300000000000000e+02  3.0300000000000000e+02  3.0300000000000000e+02  3.0300000000000000e+02  3.0300000000000000e+02  3.0300000000000000e+02  3.0300000000000000e+02  3.0300000000000000e+02  3.0300000000000000e+02  3.0300000000000000e+02  3.0300000000000000e+02  3.0300000000000000e+02  3.0300000000000000e+02  3.0300000000000000e+02  3.0300000000000000e+02  3.0300000000000000e+02  3.0300000000000000e+02  3.0300000000000000e+02  3.0300000000000000e+02  3.0300000000000000e+02  3.0300000000000000e+02  3.0300000000000000e+02  1.6788163102585065e+02  1.0325431930699287e+02  6.6222400834057652e+01  4.3390311192983233e+01  2.8767714663904648e+01  1.9169382700706176e+01  1.2750563511256598e+01  8.4580589511293827e+00  5.5216757360135249e+00  3.5074707122229531e+00  2.1209436416134304e+00  1.1677187486236673e+00  5.0176083503315727e-01  3.9559021124215617e-02  -2.9462000374498948e-01  -5.3941992663953942e-01  -6.9546790034451389e-01  -8.2254979007962570e-01  -9.0706385463482087e-01  -9.7327284904793809e-01  -1.0148075307251352e+00  -1.0420334250889554e+00  -1.0665789638152900e+00  -1.1000275394887660e+00  -1.1158172028234912e+00  -1.1423166076965385e+00  -1.1531076745357174e+00  -1.1591194128461633e+00  -1.1673851340295016e+00  -1.1781504763824662e+00  -1.1855133186530002e+00  -1.1917252959163103e+00  -1.2042611513945849e+00  -1.2060258784750542e+00  -1.1867430335989806e+00  -1.2330607588356794e+00  -1.2313635761981032e+00  -1.2430529425629542e+00  -1.2498215993791899e+00  -1.2538655376092067e+00  -1.2555519759016993e+00  -1.2622926949592186e+00  -1.2809512830928453e+00  -1.2945592028967594e+00  -1.3008280040159086e+00  -1.3107813007244715e+00  -1.3219168170080842e+00  -1.3324314934289339e+00  -1.3432857866806878e+00  -1.3726559386646791e+00  -1.3718352648095800e+00  -1.3972178405433813e+00  -1.4031031681430153e+00  -1.4199336994912877e+00  -1.4237288377574431e+00  -1.4223721216659799e+00  -1.4303943983191127e+00  -1.3873550394407739e+00  -1.4278255840812564e+00  -1.4412783860971423e+00  -1.4648562702712471e+00  -1.4442223073007108e+00  -1.4414626284560434e+00  -1.4488966732784232e+00  -1.4708511484573477e+00  -1.4771812538118945e+00  -1.4829930002216196e+00  -1.4951306068528794e+00  -1.5003054128921389e+00  -1.5071484791377938e+00  -1.5264141406688134e+00  -1.5734370687284602e+00  -1.5784202121003534e+00  -1.5804587127733618e+00  -1.5913138397430058e+00  -1.6025712711531734e+00  -1.6226574242730678e+00  -1.6137249005389147e+00  -1.6411453965623994e+00  -1.6511226130252823e+00  -1.6637574715703414e+00  -1.6766544490135238e+00  -1.6912812463854430e+00  -1.7212261606854753e+00  -1.7104020574842345e+00  -1.7137156753446572e+00  -1.7244600714944744e+00  -1.7260933310585540e+00  -1.7333363708343503e+00  -1.7401510936637172e+00  -1.7601223935798220e+00  -1.7886418594227651e+00  -1.8246293151034378e+00  -1.8310833846582673e+00  -1.8223274259271010e+00  -1.8330743092634285e+00  -1.8299092140390321e+00  -1.8592155837488160e+00  -1.8293343017761077e+00  -1.8956114818325862e+00  -1.9283092954777286e+00  -1.9250865119332583e+00  -1.9149896726205455e+00  -1.9199215493473405e+00  -1.9408625274408460e+00  -1.9604854054170204e+00  -1.9752103756068198e+00  -1.9809987575005763e+00  -1.9855676253968415e+00  -1.9941408097336826e+00  -2.0125364066778961e+00  -2.0344532576959109e+00  -2.0734711793223410e+00  -2.0278186931297086e+00  -2.0964756140218155e+00  -2.1370393340548786e+00  -2.1420657779485333e+00  -2.1238478412696606e+00  -2.1346490572151446e+00  -2.1548210545842332e+00  -2.1973039152822591e+00  -2.1945958710434925e+00  -2.1574355168867672e+00  -2.2414990728689310e+00  -2.2423228132711737e+00  -2.2659815730710307e+00  -2.2766607925220073e+00  -2.2999677526041884e+00  -2.2685828709428577e+00  -2.2710564908783493e+00  -2.2835629845575571e+00  -2.3143933322778980e+00  -2.3553599633541014e+00  -2.4087545821845571e+00  -2.4083768331073370e+00  -2.4214414540521112e+00  -2.4463511815873877e+00  -2.4456060618630926e+00  -2.4496629043659017e+00  -2.4500474573459590e+00  -2.4757506902217217e+00  -2.5318471341623563e+00  -2.5838434099737428e+00  -2.5985610738792531e+00  -2.5991005633486983e+00  -2.5860628291469152e+00  -2.6056669941934589e+00  -2.6244120830297386e+00  -2.6284925764252365e+00  -2.6503254415376634e+00  -2.6657486679793401e+00  -2.6898943910627007e+00  -2.7197321894503279e+00  -2.7456219517252807e+00  -2.7593389814923568e+00  -2.7865192858500900e+00  -2.8127371760104274e+00  -2.8354514246280562e+00  -2.8429219035840210e+00  -2.8591693484069269e+00  -2.8810938765152718e+00  -2.9187580374077542e+00  -2.9600269478079699e+00  -2.9861388592435083e+00  -3.0017296824202591e+00  -3.0163246388799276e+00  -3.0486536089048157e+00  -3.0790660389562525e+00  -3.0826212032443578e+00  -3.1183011013950730e+00  -3.1265068830614289e+00  -3.1481917498215646e+00  -3.1792101104006720e+00  -3.2228902631845049e+00  -3.2194293778825798e+00  -3.2583503193150114e+00  -3.2726820935628411e+00  -3.2883597523908921e+00  -3.3173823436681409e+00  -3.3324028156732934e+00  -3.3597993159827162e+00  -3.3826962750238443e+00  -3.4220048654034003e+00  -3.4495848580339508e+00  -3.4946239592801618e+00  -3.4924196144817818e+00  -3.5465818457083187e+00  -3.5615856758615401e+00  -3.5713162948354547e+00  -3.5929223332394771e+00  -3.6615354345787616e+00  -3.7153819089426290e+00  -3.7493583525273588e+00  -3.7791671670620026e+00  -3.7731129882163854e+00  -3.7758765975616209e+00  -3.8227519445144185e+00  -3.8699828625434578e+00  -3.9089965035633538e+00  -3.9378822413447661e+00  -3.9847095543598408e+00  -4.0199695557587836e+00  -4.0582158084361133e+00  -4.0744364877823491e+00  -4.0901789642153927e+00  -4.1459285003055060e+00  -4.1643421702641819e+00  -4.1862212376224255e+00  -4.2489554673074119e+00  -4.2598506702271930e+00  -4.2919359199553773e+00  -4.2930916911154817e+00  -4.3130333045691422e+00  -4.3788648094105174e+00  -4.4197947648676443e+00  -4.5418934283176222e+00  -4.6121327027229979e+00  -4.6516831957700351e+00  -4.6658724702239347e+00  -4.6903204984365514e+00  -4.7150860874918719e+00  -4.7433533922678661e+00  -4.7926972934734788e+00  -4.8700797384694923e+00  -4.9277787879112118e+00  -4.9852091151714690e+00  -5.0180366154531546e+00  -5.0619512853940707e+00  -5.1306422694964962e+00  -5.1786909331864717e+00  -5.1748743037283793e+00  -5.2049860768086864e+00  -5.2669030057598443e+00  -5.3367579579800868e+00  -5.4179869047169431e+00  -5.5017169853719237e+00  -5.5695242217312284e+00  -5.6348152977199355e+00  -5.6745786554461759e+00  -5.7007402594390211e+00  -5.6624692006331978e+00  -5.7406297674225559e+00  -5.8198382275151967e+00  -5.9125823761224421e+00  -5.9929501269603058e+00  -6.0931486274649149e+00  -6.1857200617468813e+00  -6.2905377875745749e+00  -6.3976246113899693e+00  6.3057402917955831e-03  2.0626082773838143e-02  1.7814423930609870e-03  9.9727289354102893e-03  3.4940328228410075e-02  6.0069909152859937e-04  -3.2405137794572233e-05  8.8254422822250673e-03  -7.0534908762126314e-05  -3.5072883659410586e-03  -3.4213979654399468e-03  -3.0255161085140925e-03  -1.0611984177560437e-03  2.0813064716509698e-02  6.3284446626524077e-02  7.7803961510346394e-04  -3.2204494486104984e-03  -5.4740160145150549e-03  -5.8326208112482675e-03  2.9451595877079653e-03  1.0286282339554224e-02  2.3697621520054255e-02  2.2416712001141694e-03  5.9341792950272348e-03  2.0020316597795455e-02  6.6104734934528122e-04  2.8208254196263926e-03  -1.4413167944053976e-03  -1.1116701342292329e-03  -1.2045553252884875e-03  3.7251982821631209e-03  -1.9538188599906169e-03  -1.1024220797235876e-03  -3.2263376799965440e-03  -3.6514952526594613e-03  -3.8309372922842046e-03  -4.1809255676871484e-03  7.3868816875785649e-03  4.7999083523335616e-02  -5.2470970930830942e-03  -1.8253595280994671e-03  -3.7420111857923676e-03  -5.0198513301607474e-03  -3.1659168787697323e-03  -4.3108422383344039e-03  -2.9191923809859361e-03  8.8809622522243684e-04  -3.3118066772891835e-03  -1.8374440673024611e-03  3.0601244795379341e-03  -7.0767889513881029e-04  7.8216643282384771e-03  4.0629079323891582e-03  2.2904182499872743e-04  -2.3363849738322383e-03  2.5174096756354564e-04  1.5879568896887394e-02  4.2396790725572987e-02  1.0072871671667608e-01  3.2499582206509525e-01  -6.7288424405334262e-03  -7.2153270714041401e-03  -1.0142456616480763e-02  -9.1130225449835549e-03  3.1485571877891111e-02  2.3073401611548780e-01  1.4186404157323892e-01  -2.0647142362609349e-03  -1.0979435667161965e-02  2.8970932678319627e-01  -1.0672722233060625e-02  -8.7259571610522300e-03  -9.6796508028538942e-03  4.2448848935462663e-01  1.3034819039587725e-01  1.7035795748827531e-02  5.4613409353972586e-01  -9.6302594990324876e-03  6.1697074715140292e-03  6.2930550714732400e-02  1.1189786950531376e-01  -1.1421017050435363e-02  -1.8224150840151835e-02  1.0222255235070996e+00  1.0740432372984658e-02  -2.8614024051627734e-01  8.1223120104856383e-02  2.3763107138733833e-01  2.5300502650109291e-01  1.7349594781135458e-01  1.8054811878625756e-02  -1.1444360079038637e-02  1.1499566482240682e+00  -1.6489181086987104e-02  4.4456666304705272e-01  4.7714122858369790e-01  -7.7215225645340543e-02  -2.7414640304910570e-03  1.0800797903214941e-03  8.2129397818612038e-01  6.9315556773907461e-01  2.3220389595203317e+00  -1.9845268340263011e-02  -3.9445604845072174e-02  -3.4361694730560256e-02  2.8021022142909620e+00  -2.4334585707382655e-02  1.7381003131483581e+00  3.9115717934062816e-01  1.9155514924239769e+00  2.9230487052599790e+00  -3.3767116494934232e-02  -5.3272140862508040e-02  -9.3237583247172285e-03  3.2596904045257252e-02  -3.0541172206083846e-02  -3.8549653658597534e-02  3.1361419261064043e+00  3.8265468906709925e+00  -4.4768313532906556e-02  -4.8725019265484261e-02  1.6090521927140466e-01  -2.8034524852352000e-02  3.3292174378478623e+00  -2.6088701082289174e-02  4.1898367555052687e+00  6.3511391766545024e+00  5.6497897931641772e+00  1.7971935164995954e+00  4.4294791298192067e+00  3.7841604068964831e+00  -3.4228570956742900e-02  5.2432462140842873e+00  -2.7423685299398499e-02  1.5936186855318448e+00  4.9134573189055040e+00  -1.3490687335130377e-01  -9.6552203343750753e-02  -7.7649064288917366e-02  1.1051338861547865e+01  7.7854977395119018e+00  7.3996403845392509e+00  7.7369775560484984e+00  -5.5458343183833990e-02  -3.8932759512585562e-02  8.2304177734341053e+00  7.1982073047541695e+00  7.7303629602798303e+00  -7.6721206063817979e-02  1.1329125950725413e+01  1.1634084999727531e+01  -5.6249776285460136e-02  -6.9200158206574228e-02  1.1918473583968908e+01  1.0479757788061940e+01  1.0560196998924013e+01  1.1255033828625232e+01  1.3731440929332969e+01  7.0545963962792886e+00  -3.5296556809577606e-02  -3.3816528675707780e-02  9.9347720349147206e+00  -5.2233673661590208e-02  5.9637806675991049e-02  -7.5313129022828218e-02  1.5150530326020260e+01  -2.9017884186055265e-01  -7.0544754517788508e-02  3.0360250642312547e-01  1.4295077864612773e+01  1.4292174062590478e+01  1.2831941725856870e+01  1.5640000448071360e+01  1.2209550952748966e+01  -8.8784846296486628e-02  1.3408337691331065e+00  8.9434686335890117e+00  -1.4867768168102349e-01  -1.0732454556656344e-01  -1.8421803479123253e-01  -1.6979316955098969e-01  -2.0476617546158229e-01  -8.1877505829631755e-02  -2.0228319907969519e-01  -2.4408551067180492e-01  -6.9831169984436281e-02  -1.3908093018417339e-01  1.8517088108760049e+01  1.3860204810420614e+01  1.7934150359948465e+01  2.0542231292835677e+01  2.2375791874009664e+01  4.2906008415109081e-02  -1.0881175167406254e-01  -1.4875146076605403e-01  2.4918034657532093e+01  2.1812697991442739e+01  -1.5827348338968483e-01  2.1728732458072486e+01  -1.6795303923354660e-01  2.6192709528407089e+01  2.5588139895998506e+01  -1.0989145080365754e-01  2.6135235396492803e+01  -1.9762399369885322e-01  2.3572118308272586e+01  1.2099806745501792e-02  5.8150373792723578e-03  -2.5615239171481957e-01  -1.5890745868950443e-01  -2.0816057122991233e-01  3.3485009106286469e+01  -1.3937197355456604e-01  -1.8316801184798367e-01  3.9507894945320572e+01  -3.7453572947586711e-01  3.4776601743205667e+01  -2.1158512940502730e-01  3.7764146486982092e+01  -4.8239220466471910e-01  3.2018874285793025e+01  4.0264870132795735e+01  2.2596332991479560e-03  2.8720930175156528e+01  -2.2381856036043285e-01  -2.2954101887019185e-01  -2.5974920562274834e-01  -4.3483158100728070e-01  -1.6468879660645377e-01  -2.6437146044944568e-03  3.3606101772956627e+01  2.8135176385874601e+01  -3.0019681926911063e-01  -2.75247844971