<?xml version="1.0"?>
<VTKFile type="UnstructuredGrid"  version="0.1"  >
<UnstructuredGrid>
<Piece  NumberOfPoints="15540" NumberOfCells="30546">
<Points>
<DataArray  type="Float64"  NumberOfComponents="3"  format="ascii">0 0 0  -0.5 -0.5 0  0.5 -0.5 0  0.5 0 0  0.5 0.5 0  -0.5 0.5 0  -0.5 0.0001 0  -0.5 -0.0001 0  0.5 0.1 0  0.5 -0.1 0  -0.5 -0.1 0  -0.5 0.1 0  -0.4900000000000277 -0.5 0  -0.4800000000000555 -0.5 0  -0.4700000000000832 -0.5 0  -0.4600000000001109 -0.5 0  -0.4500000000001387 -0.5 0  -0.4400000000001664 -0.5 0  -0.4300000000001942 -0.5 0  -0.4200000000002219 -0.5 0  -0.4100000000002497 -0.5 0  -0.4000000000002774 -0.5 0  -0.3900000000003052 -0.5 0  -0.3800000000003328 -0.5 0  -0.3700000000003606 -0.5 0  -0.3600000000003883 -0.5 0  -0.3500000000004161 -0.5 0  -0.3400000000004438 -0.5 0  -0.3300000000004716 -0.5 0  -0.3200000000004993 -0.5 0  -0.3100000000005271 -0.5 0  -0.3000000000005548 -0.5 0  -0.2900000000005825 -0.5 0  -0.2800000000006103 -0.5 0  -0.2700000000006381 -0.5 0  -0.2600000000006658 -0.5 0  -0.2500000000006935 -0.5 0  -0.2400000000007212 -0.5 0  -0.230000000000749 -0.5 0  -0.2200000000007767 -0.5 0  -0.2100000000008044 -0.5 0  -0.2000000000008322 -0.5 0  -0.19000000000086 -0.5 0  -0.1800000000008877 -0.5 0  -0.1700000000009154 -0.5 0  -0.1600000000009431 -0.5 0  -0.1500000000009709 -0.5 0  -0.1400000000009986 -0.5 0  -0.1300000000010264 -0.5 0  -0.1200000000010541 -0.5 0  -0.1100000000010818 -0.5 0  -0.1000000000011096 -0.5 0  -0.09000000000113734 -0.5 0  -0.08000000000116503 -0.5 0  -0.07000000000119283 -0.5 0  -0.06000000000122058 -0.5 0  -0.05000000000124827 -0.5 0  -0.04000000000127607 -0.5 0  -0.03000000000130376 -0.5 0  -0.02000000000133151 -0.5 0  -0.01000000000135925 -0.5 0  -1.376121439022882e-12 -0.5 0  0.009999999998640763 -0.5 0  0.01999999999866864 -0.5 0  0.02999999999869629 -0.5 0  0.03999999999872406 -0.5 0  0.04999999999875182 -0.5 0  0.05999999999877947 -0.5 0  0.06999999999880724 -0.5 0  0.079999999998835 -0.5 0  0.08999999999886266 -0.5 0  0.09999999999889042 -0.5 0  0.1099999999989182 -0.5 0  0.1199999999989459 -0.5 0  0.1299999999989737 -0.5 0  0.1399999999990014 -0.5 0  0.1499999999990291 -0.5 0  0.1599999999990568 -0.5 0  0.1699999999990847 -0.5 0  0.1799999999991124 -0.5 0  0.1899999999991401 -0.5 0  0.1999999999991678 -0.5 0  0.2099999999991955 -0.5 0  0.2199999999992234 -0.5 0  0.2299999999992511 -0.5 0  0.2399999999992788 -0.5 0  0.2499999999993066 -0.5 0  0.2599999999993342 -0.5 0  0.269999999999362 -0.5 0  0.2799999999993897 -0.5 0  0.2899999999994175 -0.5 0  0.2999999999994452 -0.5 0  0.3099999999994729 -0.5 0  0.3199999999995007 -0.5 0  0.3299999999995284 -0.5 0  0.3399999999995562 -0.5 0  0.3499999999995839 -0.5 0  0.3599999999996116 -0.5 0  0.3699999999996393 -0.5 0  0.379999999999667 -0.5 0  0.3899999999996949 -0.5 0  0.3999999999997226 -0.5 0  0.4099999999997503 -0.5 0  0.419999999999778 -0.5 0  0.4299999999998058 -0.5 0  0.4399999999998336 -0.5 0  0.4499999999998613 -0.5 0  0.4599999999998891 -0.5 0  0.4699999999999167 -0.5 0  0.4799999999999445 -0.5 0  0.4899999999999722 -0.5 0  0.5 -0.4902110204681464 0  0.5 -0.4804459958734807 0  0.5 -0.4707048677450883 0  0.5 -0.4609875815766065 0  0.5 -0.4512940759251849 0  0.5 -0.4416242912883993 0  0.5 -0.4319781678689807 0  0.5 -0.4223556545383647 0  0.5 -0.4127566896324213 0  0.5 -0.4031812128200121 0  0.5 -0.3936291733057916 0  0.5 -0.3841005081172659 0  0.5 -0.3745951585781932 0  0.5 -0.3651130778999337 0  0.5 -0.3556541993788045 0  0.5 -0.3462184677228392 0  0.5 -0.3368058273705318 0  0.5 -0.3274162224888609 0  0.5 -0.3180495969712945 0  0.5 -0.3087058944357755 0  0.5 -0.299385058222682 0  0.5 -0.2900870313927414 0  0.5 -0.2808117567250807 0  0.5 -0.2715591844628491 0  0.5 -0.2623292564012653 0  0.5 -0.253121909553727 0  0.5 -0.2439371050851549 0  0.5 -0.2347747685524501 0  0.5 -0.2256348634421331 0  0.5 -0.2165173209784076 0  0.5 -0.207422087829958 0  0.5 -0.1983491207029381 0  0.5 -0.1892983550950482 0  0.5 -0.1802697378305253 0  0.5 -0.1712632154965152 0  0.5 -0.1622787344187354 0  0.5 -0.1533162406595534 0  0.5 -0.1443756800160514 0  0.5 -0.1354569980180493 0  0.5 -0.1265601399261414 0  0.5 -0.1176850622761093 0  0.5 -0.1088317009011999 0  0.5 -0.09166666666668973 0  0.5 -0.08333333333337943 0  0.5 -0.07500000000006915 0  0.5 -0.06666666666675886 0  0.5 -0.05833333333344858 0  0.5 -0.05000000000013693 0  0.5 -0.04166666666678191 0  0.5 -0.03333333333342643 0  0.5 -0.02500000000006916 0  0.5 -0.01666666666671188 0  0.5 -0.00833333333335548 0  0.5 0.008333333333318314 0  0.5 0.01666666666663358 0  0.5 0.02499999999994162 0  0.5 0.03333333333325101 0  0.5 0.04166666666655769 0  0.5 0.04999999999986843 0  0.5 0.05833333333322258 0  0.5 0.06666666666657715 0  0.5 0.07499999999993352 0  0.5 0.08333333333328992 0  0.5 0.09166666666664541 0  0.5 0.1088317009011616 0  0.5 0.1176850622760307 0  0.5 0.1265601399260203 0  0.5 0.1354569980178909 0  0.5 0.1443756800158549 0  0.5 0.153316240659315 0  0.5 0.1622787344184454 0  0.5 0.1712632154961752 0  0.5 0.1802697378301332 0  0.5 0.1892983550946039 0  0.5 0.1983491207024433 0  0.5 0.2074220878294123 0  0.5 0.216517320977811 0  0.5 0.2256348634414833 0  0.5 0.2347747685517479 0  0.5 0.2439371050844009 0  0.5 0.2531219095529224 0  0.5 0.2623292564004089 0  0.5 0.2715591844619371 0  0.5 0.2808117567241139 0  0.5 0.290087031391723 0  0.5 0.2993850582216101 0  0.5 0.3087058944347426 0  0.5 0.3180495969703129 0  0.5 0.3274162224879299 0  0.5 0.3368058273696494 0  0.5 0.3462184677220051 0  0.5 0.3556541993780186 0  0.5 0.3651130778991989 0  0.5 0.3745951585775107 0  0.5 0.3841005081166359 0  0.5 0.3936291733052134 0  0.5 0.4031812128194852 0  0.5 0.412756689631945 0  0.5 0.4223556545379392 0  0.5 0.431978167868607 0  0.5 0.4416242912880781 0  0.5 0.4512940759249164 0  0.5 0.4609875815763912 0  0.5 0.4707048677449264 0  0.5 0.4804459958733726 0  0.5 0.4902110204680924 0  0.4900000000000277 0.5 0  0.4800000000000555 0.5 0  0.4700000000000832 0.5 0  0.4600000000001109 0.5 0  0.4500000000001387 0.5 0  0.4400000000001664 0.5 0  0.4300000000001942 0.5 0  0.4200000000002219 0.5 0  0.4100000000002497 0.5 0  0.4000000000002774 0.5 0  0.3900000000003052 0.5 0  0.3800000000003328 0.5 0  0.3700000000003606 0.5 0  0.3600000000003883 0.5 0  0.3500000000004161 0.5 0  0.3400000000004438 0.5 0  0.3300000000004716 0.5 0  0.3200000000004993 0.5 0  0.3100000000005271 0.5 0  0.3000000000005548 0.5 0  0.2900000000005825 0.5 0  0.2800000000006103 0.5 0  0.2700000000006381 0.5 0  0.2600000000006658 0.5 0  0.2500000000006935 0.5 0  0.2400000000007212 0.5 0  0.230000000000749 0.5 0  0.2200000000007767 0.5 0  0.2100000000008044 0.5 0  0.2000000000008322 0.5 0  0.19000000000086 0.5 0  0.1800000000008877 0.5 0  0.1700000000009154 0.5 0  0.1600000000009431 0.5 0  0.1500000000009709 0.5 0  0.1400000000009986 0.5 0  0.1300000000010264 0.5 0  0.1200000000010541 0.5 0  0.1100000000010818 0.5 0  0.1000000000011096 0.5 0  0.09000000000113734 0.5 0  0.08000000000116503 0.5 0  0.07000000000119283 0.5 0  0.06000000000122058 0.5 0  0.05000000000124827 0.5 0  0.04000000000127607 0.5 0  0.03000000000130376 0.5 0  0.02000000000133151 0.5 0  0.01000000000135925 0.5 0  1.376121439022882e-12 0.5 0  -0.009999999998640763 0.5 0  -0.01999999999866864 0.5 0  -0.02999999999869629 0.5 0  -0.03999999999872406 0.5 0  -0.04999999999875182 0.5 0  -0.05999999999877947 0.5 0  -0.06999999999880724 0.5 0  -0.079999999998835 0.5 0  -0.08999999999886266 0.5 0  -0.09999999999889042 0.5 0  -0.1099999999989182 0.5 0  -0.1199999999989459 0.5 0  -0.1299999999989737 0.5 0  -0.1399999999990014 0.5 0  -0.1499999999990291 0.5 0  -0.1599999999990568 0.5 0  -0.1699999999990847 0.5 0  -0.1799999999991124 0.5 0  -0.1899999999991401 0.5 0  -0.1999999999991678 0.5 0  -0.2099999999991955 0.5 0  -0.2199999999992234 0.5 0  -0.2299999999992511 0.5 0  -0.2399999999992788 0.5 0  -0.2499999999993066 0.5 0  -0.2599999999993342 0.5 0  -0.269999999999362 0.5 0  -0.2799999999993897 0.5 0  -0.2899999999994175 0.5 0  -0.2999999999994452 0.5 0  -0.3099999999994729 0.5 0  -0.3199999999995007 0.5 0  -0.3299999999995284 0.5 0  -0.3399999999995562 0.5 0  -0.3499999999995839 0.5 0  -0.3599999999996116 0.5 0  -0.3699999999996393 0.5 0  -0.379999999999667 0.5 0  -0.3899999999996949 0.5 0  -0.3999999999997226 0.5 0  -0.4099999999997503 0.5 0  -0.419999999999778 0.5 0  -0.4299999999998058 0.5 0  -0.4399999999998336 0.5 0  -0.4499999999998613 0.5 0  -0.4599999999998891 0.5 0  -0.4699999999999167 0.5 0  -0.4799999999999445 0.5 0  -0.4899999999999722 0.5 0  -0.5 0.4902110204681464 0  -0.5 0.4804459958734807 0  -0.5 0.4707048677450883 0  -0.5 0.4609875815766065 0  -0.5 0.4512940759251849 0  -0.5 0.4416242912883993 0  -0.5 0.4319781678689807 0  -0.5 0.4223556545383647 0  -0.5 0.4127566896324213 0  -0.5 0.4031812128200121 0  -0.5 0.3936291733057916 0  -0.5 0.3841005081172659 0  -0.5 0.3745951585781932 0  -0.5 0.3651130778999337 0  -0.5 0.3556541993788045 0  -0.5 0.3462184677228392 0  -0.5 0.3368058273705318 0  -0.5 0.3274162224888609 0  -0.5 0.3180495969712945 0  -0.5 0.3087058944357755 0  -0.5 0.299385058222682 0  -0.5 0.2900870313927414 0  -0.5 0.2808117567250807 0  -0.5 0.2715591844628491 0  -0.5 0.2623292564012653 0  -0.5 0.253121909553727 0  -0.5 0.2439371050851549 0  -0.5 0.2347747685524501 0  -0.5 0.2256348634421331 0  -0.5 0.2165173209784076 0  -0.5 0.207422087829958 0  -0.5 0.1983491207029381 0  -0.5 0.1892983550950482 0  -0.5 0.1802697378305253 0  -0.5 0.1712632154965152 0  -0.5 0.1622787344187354 0  -0.5 0.1533162406595534 0  -0.5 0.1443756800160514 0  -0.5 0.1354569980180493 0  -0.5 0.1265601399261414 0  -0.5 0.1176850622761093 0  -0.5 0.1088317009011999 0  -0.5 0.09167500000001694 0  -0.5 0.08335000000003931 0  -0.5 0.07502500000006167 0  -0.5 0.06670000000008947 0  -0.5 0.05837500000011001 0  -0.5 0.0500500000001328 0  -0.5 0.0417250000001127 0  -0.5 0.03340000000008944 0  -0.5 0.02507500000006573 0  -0.5 0.01675000000004653 0  -0.5 0.008425000000027341 
[...]
<PointData  Scalars="f_40"> 
<DataArray  type="Float64"  Name="f_40"  format="ascii">-2.7877218539230426e-02  4.2787483611327663e-05  -2.3974717428224893e-03  -4.0757984605466180e-04  3.0300000000000000e+02  3.0300000000000000e+02  -1.8771908344146727e-07  -1.7992734471982800e-07  -4.4822972198381742e-04  -4.2945944265912396e-04  7.6236628256068861e-06  6.8642245155234896e-06  4.7108329238037743e-05  4.9082193628395315e-05  4.9905006902904528e-05  4.8492947173008912e-05  4.6328314117943253e-05  4.3448191841000091e-05  4.0160602210763686e-05  3.5099517294061655e-05  3.0781824903859137e-05  2.5562128871754241e-05  2.0636852645817622e-05  1.5017125285880673e-05  8.8023706231290798e-06  3.4387387005762526e-06  -1.6555999596329289e-06  -8.0149791695960008e-06  -1.3916972889098359e-05  -2.1264583626390768e-05  -2.7601385323588489e-05  -3.4992589000142814e-05  -4.2292369275215218e-05  -4.9321107741400658e-05  -5.7048372779629085e-05  -6.4646482738214424e-05  -7.3023231228537357e-05  -8.0205345424903276e-05  -8.8633640359150881e-05  -9.8925813363453987e-05  -1.0782679086395414e-04  -1.1715515821470009e-04  -1.2680908439534206e-04  -1.3594082291575196e-04  -1.4651352580934916e-04  -1.5720105345187773e-04  -1.6877768465369729e-04  -1.7964762581278249e-04  -1.9060177105319133e-04  -2.0239793532890921e-04  -2.1458432477955655e-04  -2.2667967566239930e-04  -2.3938677556153526e-04  -2.5261297819903755e-04  -2.6524463617562746e-04  -2.7885519000040598e-04  -2.9176497559763118e-04  -3.0712316748053630e-04  -3.1961559601499114e-04  -3.3379098809551187e-04  -3.4724709607871179e-04  -3.6129202362740779e-04  -3.7525974667201433e-04  -3.8776357917571049e-04  -4.0263490827721935e-04  -4.1806245702939520e-04  -4.3107181872004537e-04  -4.4417298225602457e-04  -4.5804101172633395e-04  -4.7014223666547958e-04  -4.8421773319559961e-04  -4.9673244972078085e-04  -5.1060995175758700e-04  -5.2465809785864404e-04  -5.3579349654212470e-04  -5.4836192361412412e-04  -5.6017559347075669e-04  -5.7216475381131025e-04  -5.8571111079658679e-04  -5.9650678109335179e-04  -6.0823422543466045e-04  -6.1961361653096417e-04  -6.3132702212384051e-04  -6.4433885825601232e-04  -6.5627866547128154e-04  -6.6572298663202445e-04  -6.7719731762941066e-04  -6.8814166417544129e-04  -6.9931374750222734e-04  -7.1129695007297530e-04  -7.2475807755356333e-04  -7.3599358678429812e-04  -7.5084976719139856e-04  -7.6399099341319782e-04  -7.7834268317866588e-04  -7.9170376603523540e-04  -8.0851921883018656e-04  -8.2664645653230502e-04  -8.4598542675358998e-04  -8.7114669382413155e-04  -8.9393553966930328e-04  -9.1966106011887267e-04  -9.5569782739635351e-04  -9.9856757155115461e-04  -1.0404791522308184e-03  -1.0987856839852635e-03  -1.1794440494319620e-03  -1.2888257906805392e-03  -1.4269856526890460e-03  -1.6042260792110523e-03  -1.9246757074334070e-03  -1.6981323984055423e-03  -1.2041929537519567e-03  -9.7605641466260590e-04  -8.5735218610980424e-04  -7.8221267661261274e-04  -7.3248914171071869e-04  -7.0081307986008306e-04  -6.7829835309379707e-04  -6.5925567878602855e-04  -6.4611264467676890e-04  -6.3269516977528298e-04  -6.2387419695019569e-04  -6.1368326424675378e-04  -6.0697546029773975e-04  -5.9905482645691388e-04  -5.9298434860269257e-04  -5.8640916014260185e-04  -5.8054968155098630e-04  -5.7468560984476758e-04  -5.6839523913540090e-04  -5.6249790880888461e-04  -5.5677381376054429e-04  -5.5064782213487421e-04  -5.4415137242906869e-04  -5.3767189933382712e-04  -5.3098782306341269e-04  -5.2503154148939067e-04  -5.1922299077924116e-04  -5.1229612644020030e-04  -5.0570428061137880e-04  -4.9875944793985696e-04  -4.9244496739644114e-04  -4.8543744830694573e-04  -4.7963873262362616e-04  -4.7338851781046740e-04  -4.6728250820209761e-04  -4.6062532132751677e-04  -4.5505269532204051e-04  -4.4886256445324685e-04  -4.4405457495160357e-04  -4.3880400657880981e-04  -4.3391446295530189e-04  -4.2495698629864469e-04  -4.2189266597640357e-04  -4.1818698044537026e-04  -4.1559005648204395e-04  -4.1377882809690388e-04  -4.1018753451190680e-04  -4.0877073072292729e-04  -4.0783539742306142e-04  -4.0739675739987554e-04  -4.0667258765430831e-04  -4.0675877436279704e-04  -4.0827023679202785e-04  -4.0997217049674371e-04  -4.1154736748738298e-04  -4.1385107119817937e-04  -4.1722669340229471e-04  -4.1997248134048549e-04  -4.2329424820255828e-04  -4.2816955087168426e-04  -4.3291626511875430e-04  -4.3686957742717980e-04  -4.4227965778235995e-04  -4.5485752712788266e-04  -4.6177436077098392e-04  -4.6894649715255245e-04  -4.7549512811949162e-04  -4.8410862786978955e-04  -4.9163528075075525e-04  -5.0073345222505130e-04  -5.0888933040240877e-04  -5.1781461998433287e-04  -5.2574208976667580e-04  -5.3525781886346068e-04  -5.4378218814700799e-04  -5.5333578975461334e-04  -5.6264508181232240e-04  -5.7152069597468755e-04  -5.8011899346982086e-04  -5.8854010081963283e-04  -5.9744004768060520e-04  -6.0609715912767446e-04  -6.1478936726057224e-04  -6.2341298056690139e-04  -6.3047405628800074e-04  -6.3854001937655651e-04  -6.4517776526565123e-04  -6.5283218008961618e-04  -6.5986364356562203e-04  -6.6614171730141843e-04  -6.7148169398379613e-04  -6.7794952356738005e-04  -6.8248172325168670e-04  -6.8820436178208236e-04  -6.9251989789746206e-04  -6.9719431376153351e-04  -7.0102939316554487e-04  -7.0414091084621021e-04  -7.0811799550229407e-04  -7.0984624870370344e-04  -7.5093056587154355e-04  1.8917824252813068e-03  -1.2418581742369710e-01  7.5866651988340611e-02  -1.3806469073696093e+00  3.0300000000000000e+02  3.0300000000000000e+02  3.0300000000000000e+02  3.0300000000000000e+02  3.0300000000000000e+02  3.0300000000000000e+02  3.0300000000000000e+02  3.0300000000000000e+02  3.0300000000000000e+02  3.0300000000000000e+02  3.0300000000000000e+02  3.0300000000000000e+02  3.0300000000000000e+02  3.0300000000000000e+02  3.0300000000000000e+02  3.0300000000000000e+02  3.0300000000000000e+02  3.0300000000000000e+02  3.0300000000000000e+02  3.0300000000000000e+02  3.0300000000000000e+02  3.0300000000000000e+02  3.0300000000000000e+02  3.0300000000000000e+02  3.0300000000000000e+02  3.0300000000000000e+02  3.0300000000000000e+02  3.0300000000000000e+02  3.0300000000000000e+02  3.0300000000000000e+02  3.0300000000000000e+02  3.0300000000000000e+02  3.0300000000000000e+02  3.0300000000000000e+02  3.0300000000000000e+02  3.0300000000000000e+02  3.0300000000000000e+02  3.0300000000000000e+02  3.0300000000000000e+02  3.0300000000000000e+02  3.0300000000000000e+02  3.0300000000000000e+02  3.0300000000000000e+02  3.0300000000000000e+02  3.0300000000000000e+02  3.0300000000000000e+02  3.0300000000000000e+02  3.0300000000000000e+02  3.0300000000000000e+02  3.0300000000000000e+02  3.0300000000000000e+02  3.0300000000000000e+02  3.0300000000000000e+02  3.0300000000000000e+02  3.0300000000000000e+02  3.0300000000000000e+02  3.0300000000000000e+02  3.0300000000000000e+02  3.0300000000000000e+02  3.0300000000000000e+02  3.0300000000000000e+02  3.0300000000000000e+02  3.0300000000000000e+02  3.0300000000000000e+02  3.0300000000000000e+02  3.0300000000000000e+02  3.0300000000000000e+02  3.0300000000000000e+02  3.0300000000000000e+02  3.0300000000000000e+02  3.0300000000000000e+02  3.0300000000000000e+02  3.0300000000000000e+02  3.0300000000000000e+02  3.0300000000000000e+02  3.0300000000000000e+02  3.0300000000000000e+02  3.0300000000000000e+02  3.0300000000000000e+02  3.0300000000000000e+02  3.0300000000000000e+02  3.0300000000000000e+02  3.0300000000000000e+02  3.0300000000000000e+02  3.0300000000000000e+02  3.0300000000000000e+02  3.0300000000000000e+02  3.0300000000000000e+02  3.0300000000000000e+02  3.0300000000000000e+02  3.0300000000000000e+02  3.0300000000000000e+02  3.0300000000000000e+02  3.0300000000000000e+02  3.0300000000000000e+02  3.0300000000000000e+02  3.0300000000000000e+02  3.0300000000000000e+02  3.0300000000000000e+02  -8.9929777196750371e-01  8.8396993040620486e-02  -8.4529648871679894e-02  1.6632220537901106e-03  9.1501043418914220e-05  1.1184552427044446e-04  1.1123987987174081e-04  1.1000474983690242e-04  1.0841150277048852e-04  1.0722637935948021e-04  1.0602140067375578e-04  1.0388163152967235e-04  1.0181072692847824e-04  1.0026506246693111e-04  9.7505202599139880e-05  9.5810548584912244e-05  9.3395630642232835e-05  9.0569163372228025e-05  8.8046592883977444e-05  8.5055775452479347e-05  8.2815076111816704e-05  7.8986050218682313e-05  7.6153447132131194e-05  7.2773843947307332e-05  6.8893048611651819e-05  6.5673155416724513e-05  6.2330016336219535e-05  5.9081836885034632e-05  5.4532636409930565e-05  5.1229944902076824e-05  4.6376845506063971e-05  4.3228772341137104e-05  4.0021803399415688e-05  3.5358743811810968e-05  3.2023436778661099e-05  2.8378060491612701e-05  2.4711055770070051e-05  2.0942384514302116e-05  1.7595838925109980e-05  1.4691203194777033e-05  1.1826096587422203e-05  9.3395245670657221e-06  4.7553092344483043e-06  3.2007530113676007e-06  1.7680126919190799e-06  9.0503978883601287e-07  1.9172936790227839e-07  -4.2986685790453167e-07  -5.3212587703094583e-07  -5.1514468756104778e-07  -3.9873903099868055e-07  -3.1183589494629023e-07  -2.0899724840993269e-07  -5.1486774506636400e-07  -1.1565407766557583e-06  -1.5170680155822602e-06  -1.6592895871833398e-06  -1.1207559472968583e-06  -1.2742732004713661e-07  1.3380166447890567e-06  2.6337830196597065e-06  5.0596847737562248e-06  8.6885210297980912e-06  1.1854264044288892e-05  1.5143428247728454e-05  2.0156328713599802e-05  2.3918677912993892e-05  2.8533982081516017e-05  3.4402731753321003e-05  3.8084748657502559e-05  4.3664240638225818e-05  5.1101675258902448e-05  5.6708902026692638e-05  6.2158247251063302e-05  6.9565955629003490e-05  7.3481039370059442e-05  8.0093284083469836e-05  8.9532740251928083e-05  9.6051370498656771e-05  1.0242824394923827e-04  1.1101549446245210e-04  1.1464819915559343e-04  1.2203277180599478e-04  1.3337688546859896e-04  1.4062470780304656e-04  1.4779975175110014e-04  1.5727932878182484e-04  1.6056721158685041e-04  1.6859608133575947e-04  1.8153076083975576e-04  1.8844416138779401e-04  1.9673385550570760e-04  2.0769673475418395e-04  2.1126228434950088e-04  2.2010915039122784e-04  2.3415785563622439e-04  2.4183346479207199e-04  2.5038906665453584e-04  2.6142396797978920e-04  2.6412925417414554e-04  2.7168801491299631e-04  2.8490101755590600e-04  2.8903665659374167e-04  2.9180813617456556e-04  2.9492440803510203e-04  2.9409203035323737e-04  1.9494780579005643e-04  -7.9982084978813314e-03  -5.4084619090908779e-03  2.6803351972543341e-04  3.0602900707724751e-04  2.9919043420824018e-04  2.9664044253779550e-04  2.9455195216679706e-04  2.8841875174878039e-04  2.7490694985978376e-04  2.6704070466971751e-04  2.6433612110775273e-04  2.5445567819176848e-04  2.4546693896365098e-04  2.3580995219698602e-04  2.2105946082186066e-04  2.1203751857217252e-04  2.0850569634126129e-04  1.9814865657415967e-04  1.8985518239347945e-04  1.8156748015032227e-04  1.6848078247763904e-04  1.6035444266038247e-04  1.5680020323164412e-04  1.4717757789685482e-04  1.3994752386551842e-04  1.3275476778657098e-04  1.2178862281279086e-04  1.1446142888834057e-04  1.1066080634790250e-04  1.0209945746268739e-04  9.5658554664211734e-05  8.9324248556310273e-05  8.0331384766086451e-05  7.3937173158759569e-05  7.0011132915253393e-05  6.2715076696027186e-05  5.7229550071373322e-05  5.1811107247891417e-05  4.4719220073464182e-05  3.9264862388147895e-05  3.5525318274997770e-05  2.9680128218809089e-05  2.5212662758484631e-05  2.1458075344301792e-05  1.6496150127393718e-05  1.3193448192190427e-05  9.9496764149461519e-06  6.2494266829271231e-06  3.6320879781428277e-06  2.1791109654752015e-06  6.6148611016780702e-07  -5.6562047894272882e-07  -1.2989352247202900e-06  -1.2944414438843862e-06  -1.0332678101479282e-06  -4.7934591860466615e-07  -1.9760639831810427e-07  -2.7904533374434821e-07  -3.4269392578560337e-07  -4.1066897422998357e-07  -3.4960719963349279e-07  -1.7694772229993365e-07  5.3990625888161905e-07  1.3555552420126422e-06  2.3143653066439110e-06  3.8303577552415780e-06  5.4770179445597915e-06  1.0152700360250455e-05  1.2567313507953007e-05  1.5576149109682878e-05  1.8452453184234126e-05  2.1696058879632385e-05  2.5247598768590903e-05  2.8765372566086363e-05  3.2220624395661158e-05  3.5162076434685898e-05  3.9398537096609969e-05  4.2358797943959758e-05  4.5020976114959389e-05  4.9198762747020992e-05  5.1931739346979989e-05  5.5564661136307252e-05  5.8147816326167271e-05  6.0685704260107499e-05  6.2858300550262792e-05  6.5480224592857634e-05  6.7666921835133901e-05  6.9238059813678902e-05  7.1254584166490008e-05  7.2208680297560889e-05  7.3113560693255174e-05  7.3918881146731364e-05  7.4376687439408153e-05  7.4633636782926155e-05  7.3996556060071795e-05  7.3598260108908596e-05  7.2874554563610264e-05  7.1249519548471419e-05  7.0188480289704085e-05  6.7885934403476555e-05  6.5019357066292815e-05  6.2325773933989727e-05  5.9233779279445722e-05  5.5006332038030000e-05  5.0380034186023074e-05  4.5144122560497294e-05  4.0646335391987915e-05  3.5858679746881031e-05  3.4809109186750507e-05  8.0700981814064023e-06  9.6225474734324539e-06  1.0984325713361752e-05  1.1942752860736215e-05  1.3278480390627990e-05  1.4021514520847831e-05  1.5286733984080541e-05  1.6054548805032441e-05  1.6796315121776661e-05  1.8089229684563882e-05  1.8927821397727826e-05  1.9900628711149171e-05  2.0806524584773241e-05  2.1845595188929587e-05  2.3301243481007372e-05  2.4058941197267715e-05  2.5505224511924023e-05  2.6553433617216655e-05  2.7347186654236898e-05  2.8992030806576046e-05  2.9667439343407831e-05  3.1263594742315586e-05  3.1762994409731457e-05  3.2992251403354642e-05  3.4471132451523452e-05  3.4815812873786773e-05  3.5749597338503699e-05  3.6927983846232138e-05  3.6714637947964082e-05  3.6998580939204518e-05  3.7897733467117622e-05  3.7531053839687446e-05  3.7145116218962999e-05  3.6829492578753335e-05  3.4807462331449011e-05  3.4904964667207256e-05  3.2707577992316230e-05  3.0415213137365456e-05  2.7584994791303615e-05  2.4136400365557961e-05  2.0354384165174290e-05  1.5018843858466024e-05  1.0129205446909165e-05  2.8078752597043159e-06  -5.9579679565945678e-06  -1.4236183610332166e-05  -2.6551313709915433e-05  -3.7013797729664308e-05  -5.2107287421922940e-05  -7.0427815852246758e-05  -9.0786556090360020e-05  -1.1849407719733990e-04  -1.4584619014151762e-04  -1.8164779469383123e-04  -2.3010641981498019e-04  -2.7053999423224827e-04  -3.3549811746282483e-04  -3.9609411153912656e-04  -4.6112994022277036e-04  -5.3369076893481737e-04  -5.9191045749181154e-04  -6.4670031467976320e-04  -7.0428386672741162e-04  -7.4556591964271518e-04  -7.7629776297088516e-04  -7.9970319523531719e-04  -8.1698279434459233e-04  -8.2642690001933023e-04  -8.2722164914092824e-04  -8.2533868611176268e-04  -8.2030682217307401e-04  -8.1735803008234212e-04  -8.0422321575044980e-04  -7.9263201022577935e-04  -7.8412852792587493e-04  -7.7292123979218229e-04  -7.5926759999644076e-04  -7.5035176891906266e-04  -7.3685181651732387e-04  -7.2446160951518976e-04  -7.1625526366264213e-04  -7.0346819027500220e-04  -6.9287731926233602e-04  -6.8204309016503810e-04  -6.7186013575739137e-04  -6.6263467978001857e-04  -6.5306402919072131e-04  -6.4363648426997661e-04  -6.3452350279527450e-04  -6.2566222464523289e-04  -6.1781941179774567e-04  -6.0928978968833323e-04  -6.0095157747509548e-04  -5.9261338392854485e-04  -5.8465369612145201e-04  -5.7711249002136177e-04  -5.6953315794237402e-04  -5.6163320996235108e-04  -5.5352192162558581e-04  -5.4586518881537423e-04  -5.3811158395067056e-04  -5.2986778733409273e-04  -5.2204757958299573e-04  -5.1463180075790940e-04  -5.0600415189025407e-04  -4.9850036575471409e-04  -4.8957900626426002e-04  -4.8092341564918593e-04  -4.7283663002376344e-04  -4.6384343028159440e-04  -4.5505431490552281e-04  8.5922763097060437e-06  9.8426077079446371e-06  1.0884678477410657e-05  1.1594940913545688e-05  1.2658970190579140e-05  1.3176135427442242e-05  1.4189464712939499e-05  1.4769053297457663e-05  1.5303625859596342e-05  1.6390280880633907e-05  1.7052323162351515e-05  1.7825285766352696e-05  1.8583079520676243e-05  1.9462188114124353e-05  2.0713066902573718e-05  2.1305370787668679e-05  2.2553501087777319e-05  2.3546811402068891e-05  2.4154883011358307e-05  2.5610596350440919e-05  2.6155438830404265e-05  2.7640305532472813e-05  2.8045003696880011e-05  2.9056937732701549e-05  3.0469174538545833e-05  3.0617220588189779e-05  3.1420541105067153e-05  3.2587751313839719e-05  3.2252142143153458e-05  3.2479491843200240e-05  3.3355227247195401e-05  3.2821402132711282e-05  3.2463740173381967e-05  3.2138020999143840e-05  2.9978239828743385e-05  3.0227775041051405e-05  2.8006555358266426e-05  2.5682704380913994e-05  2.2964889862821612e-05  1.9694913583654526e-05  1.5751005275635420e-05  1.0619507000835305e-05  5.9845537483348412e-06  -1.2174911745901822e-06  -9.8012382221719522e-06  -1.7848124979819346e-05  -2.9788421456349438e-05  -4.0238715741242638e-05  -5.4542236626577443e-05  -7.2236469642858055e-05  -9.1937354736669385e-05  -1.1818761808225343e-04  -1.4517520562619339e-04  -1.7859340100753320e-04  -2.2380373599920661e-04  -2.6326372233386505e-04  -3.2438844869543812e-04  -3.8284420221323077e-04  -4.4437939352728054e-04  -5.1576266575049999e-04  -5.7378352235465152e-04  -6.2842532774256112e-04  -6.8706683817675994e-04  -7.3113143015312058e-04  -7.6368703604403287e-04  -7.9061215370299879e-04  -8.1043512717491738e-04  -8.2321559578128224e-04  -8.2651037728665236e-04  -8.2765895903843883e-04  -8.2476634633010121e-04  -8.2408740410105496e-04  -8.1244058091072143e-04  -8.0233591212626487e-04  -7.9494445107908544e-04  -7.8479393001495621e-04  -7.7166817080899172e-04  -7.6333813161101388e-04  -7.5021497642936599e-04  -7.3803904812921612e-04  -7.2986868274512199e-04  -7.1692828757850325e-04  -7.0619228104470619e-04  -6.9520057257974608e-04  -6.8439466528230099e-04  -6.7471992292392365e-04  -6.6446661471647331e-04  -6.5434425265996430e-04  -6.4450822003592233e-04  -6.3463331442522989e-04  -6.2591052519972781e-04  -6.1639136582326175e-04  -6.0700929798787465e-04  -5.9767882087096770e-04  -5.8842927848578956e-04  -5.7985285373804299e-04  -5.7115817844310675e-04  -5.6182759228406683e-04  -5.5256037475763487e-04  -5.4352011489967704e-04  -5.3432186346186346e-04  -5.2464366336202209e-04  -5.1547831443637102e-04  -5.0666437535196098e-04  -4.9665063983601670e-04  -4.8779954025187375e-04  -4.7734471979231157e-04  -4.6748840969630000e-04  -4.5764324279921111e-04  -4.4736037162469651e-04  -4.3694515884220675e-04  -2.5923072671818172e-02  -1.4225438383507438e-02  -8.6604965796871578e-03  -5.7845160067940349e-03  -4.2833755228627755e-03  -3.3039964838450569e-03  -2.6422224723961669e-03  -2.2315766088553922e-03  -1.9230777892332250e-03  -1.7041843871009536e-03  -1.5403317967621075e-03  -1.3995372430245768e-03  -1.2953946294642204e-03  -1.2037073276015846e-03  -1.1334002703784426e-03  -1.0694333115008922e-03  -1.0189172920500923e-03  -9.7591922226210228e-04  -9.3533532957369725e-04  -8.9978950534158923e-04  -8.7083550985983722e-04  -8.3992872589143776e-04  -8.1676096479079438e-04  -7.9552738861599071e-04  -7.7340778171131963e-04  -7.5367402856358105e-04  -7.3585024295462736e-04  -7.1971758607942548e-04  -7.0477679068431756e-04  -6.8968203976403717e-04  -6.7619080661644293e-04  -6.6265463771457487e-04  -6.5019448815118971e-04  -6.3822921070513306e-04  -6.2718052655092523e-04  -6.1608298428966117e-04  -6.0499779678617959e-04  -5.9410787888179066e-04  -5.8372227390602303e-04  -5.7386086409539998e-04  -5.6372204072899234e-04  -5.5351732242757152e-04  -5.4380726419586158e-04  -5.3392524038308679e-04  -5.2416852399635096e-04  -5.1381109130179444e-04  -5.0352303504305090e-04  -4.9344087270890681e-04  -4.8305524336693568e-04  -4.7237244677378478e-04  -4.6160377521277374e-04  -4.5097707400863416e-04  -4.3923878692719626e-04  -4.2827724718847197e-04  -4.1608245728971257e-04  -1.9532331454200614e-04  -3.4072100959488845e-05  -4.2598026237432101e-04  -5.67537152