<?xml version="1.0"?>
<VTKFile type="UnstructuredGrid"  version="0.1"  >
<UnstructuredGrid>
<Piece  NumberOfPoints="15540" NumberOfCells="30546">
<Points>
<DataArray  type="Float64"  NumberOfComponents="3"  format="ascii">0 0 0  -0.5 -0.5 0  0.5 -0.5 0  0.5 0 0  0.5 0.5 0  -0.5 0.5 0  -0.5 0.0001 0  -0.5 -0.0001 0  0.5 0.1 0  0.5 -0.1 0  -0.5 -0.1 0  -0.5 0.1 0  -0.4900000000000277 -0.5 0  -0.4800000000000555 -0.5 0  -0.4700000000000832 -0.5 0  -0.4600000000001109 -0.5 0  -0.4500000000001387 -0.5 0  -0.4400000000001664 -0.5 0  -0.4300000000001942 -0.5 0  -0.4200000000002219 -0.5 0  -0.4100000000002497 -0.5 0  -0.4000000000002774 -0.5 0  -0.3900000000003052 -0.5 0  -0.3800000000003328 -0.5 0  -0.3700000000003606 -0.5 0  -0.3600000000003883 -0.5 0  -0.3500000000004161 -0.5 0  -0.3400000000004438 -0.5 0  -0.3300000000004716 -0.5 0  -0.3200000000004993 -0.5 0  -0.3100000000005271 -0.5 0  -0.3000000000005548 -0.5 0  -0.2900000000005825 -0.5 0  -0.2800000000006103 -0.5 0  -0.2700000000006381 -0.5 0  -0.2600000000006658 -0.5 0  -0.2500000000006935 -0.5 0  -0.2400000000007212 -0.5 0  -0.230000000000749 -0.5 0  -0.2200000000007767 -0.5 0  -0.2100000000008044 -0.5 0  -0.2000000000008322 -0.5 0  -0.19000000000086 -0.5 0  -0.1800000000008877 -0.5 0  -0.1700000000009154 -0.5 0  -0.1600000000009431 -0.5 0  -0.1500000000009709 -0.5 0  -0.1400000000009986 -0.5 0  -0.1300000000010264 -0.5 0  -0.1200000000010541 -0.5 0  -0.1100000000010818 -0.5 0  -0.1000000000011096 -0.5 0  -0.09000000000113734 -0.5 0  -0.08000000000116503 -0.5 0  -0.07000000000119283 -0.5 0  -0.06000000000122058 -0.5 0  -0.05000000000124827 -0.5 0  -0.04000000000127607 -0.5 0  -0.03000000000130376 -0.5 0  -0.02000000000133151 -0.5 0  -0.01000000000135925 -0.5 0  -1.376121439022882e-12 -0.5 0  0.009999999998640763 -0.5 0  0.01999999999866864 -0.5 0  0.02999999999869629 -0.5 0  0.03999999999872406 -0.5 0  0.04999999999875182 -0.5 0  0.05999999999877947 -0.5 0  0.06999999999880724 -0.5 0  0.079999999998835 -0.5 0  0.08999999999886266 -0.5 0  0.09999999999889042 -0.5 0  0.1099999999989182 -0.5 0  0.1199999999989459 -0.5 0  0.1299999999989737 -0.5 0  0.1399999999990014 -0.5 0  0.1499999999990291 -0.5 0  0.1599999999990568 -0.5 0  0.1699999999990847 -0.5 0  0.1799999999991124 -0.5 0  0.1899999999991401 -0.5 0  0.1999999999991678 -0.5 0  0.2099999999991955 -0.5 0  0.2199999999992234 -0.5 0  0.2299999999992511 -0.5 0  0.2399999999992788 -0.5 0  0.2499999999993066 -0.5 0  0.2599999999993342 -0.5 0  0.269999999999362 -0.5 0  0.2799999999993897 -0.5 0  0.2899999999994175 -0.5 0  0.2999999999994452 -0.5 0  0.3099999999994729 -0.5 0  0.3199999999995007 -0.5 0  0.3299999999995284 -0.5 0  0.3399999999995562 -0.5 0  0.3499999999995839 -0.5 0  0.3599999999996116 -0.5 0  0.3699999999996393 -0.5 0  0.379999999999667 -0.5 0  0.3899999999996949 -0.5 0  0.3999999999997226 -0.5 0  0.4099999999997503 -0.5 0  0.419999999999778 -0.5 0  0.4299999999998058 -0.5 0  0.4399999999998336 -0.5 0  0.4499999999998613 -0.5 0  0.4599999999998891 -0.5 0  0.4699999999999167 -0.5 0  0.4799999999999445 -0.5 0  0.4899999999999722 -0.5 0  0.5 -0.4902110204681464 0  0.5 -0.4804459958734807 0  0.5 -0.4707048677450883 0  0.5 -0.4609875815766065 0  0.5 -0.4512940759251849 0  0.5 -0.4416242912883993 0  0.5 -0.4319781678689807 0  0.5 -0.4223556545383647 0  0.5 -0.4127566896324213 0  0.5 -0.4031812128200121 0  0.5 -0.3936291733057916 0  0.5 -0.3841005081172659 0  0.5 -0.3745951585781932 0  0.5 -0.3651130778999337 0  0.5 -0.3556541993788045 0  0.5 -0.3462184677228392 0  0.5 -0.3368058273705318 0  0.5 -0.3274162224888609 0  0.5 -0.3180495969712945 0  0.5 -0.3087058944357755 0  0.5 -0.299385058222682 0  0.5 -0.2900870313927414 0  0.5 -0.2808117567250807 0  0.5 -0.2715591844628491 0  0.5 -0.2623292564012653 0  0.5 -0.253121909553727 0  0.5 -0.2439371050851549 0  0.5 -0.2347747685524501 0  0.5 -0.2256348634421331 0  0.5 -0.2165173209784076 0  0.5 -0.207422087829958 0  0.5 -0.1983491207029381 0  0.5 -0.1892983550950482 0  0.5 -0.1802697378305253 0  0.5 -0.1712632154965152 0  0.5 -0.1622787344187354 0  0.5 -0.1533162406595534 0  0.5 -0.1443756800160514 0  0.5 -0.1354569980180493 0  0.5 -0.1265601399261414 0  0.5 -0.1176850622761093 0  0.5 -0.1088317009011999 0  0.5 -0.09166666666668973 0  0.5 -0.08333333333337943 0  0.5 -0.07500000000006915 0  0.5 -0.06666666666675886 0  0.5 -0.05833333333344858 0  0.5 -0.05000000000013693 0  0.5 -0.04166666666678191 0  0.5 -0.03333333333342643 0  0.5 -0.02500000000006916 0  0.5 -0.01666666666671188 0  0.5 -0.00833333333335548 0  0.5 0.008333333333318314 0  0.5 0.01666666666663358 0  0.5 0.02499999999994162 0  0.5 0.03333333333325101 0  0.5 0.04166666666655769 0  0.5 0.04999999999986843 0  0.5 0.05833333333322258 0  0.5 0.06666666666657715 0  0.5 0.07499999999993352 0  0.5 0.08333333333328992 0  0.5 0.09166666666664541 0  0.5 0.1088317009011616 0  0.5 0.1176850622760307 0  0.5 0.1265601399260203 0  0.5 0.1354569980178909 0  0.5 0.1443756800158549 0  0.5 0.153316240659315 0  0.5 0.1622787344184454 0  0.5 0.1712632154961752 0  0.5 0.1802697378301332 0  0.5 0.1892983550946039 0  0.5 0.1983491207024433 0  0.5 0.2074220878294123 0  0.5 0.216517320977811 0  0.5 0.2256348634414833 0  0.5 0.2347747685517479 0  0.5 0.2439371050844009 0  0.5 0.2531219095529224 0  0.5 0.2623292564004089 0  0.5 0.2715591844619371 0  0.5 0.2808117567241139 0  0.5 0.290087031391723 0  0.5 0.2993850582216101 0  0.5 0.3087058944347426 0  0.5 0.3180495969703129 0  0.5 0.3274162224879299 0  0.5 0.3368058273696494 0  0.5 0.3462184677220051 0  0.5 0.3556541993780186 0  0.5 0.3651130778991989 0  0.5 0.3745951585775107 0  0.5 0.3841005081166359 0  0.5 0.3936291733052134 0  0.5 0.4031812128194852 0  0.5 0.412756689631945 0  0.5 0.4223556545379392 0  0.5 0.431978167868607 0  0.5 0.4416242912880781 0  0.5 0.4512940759249164 0  0.5 0.4609875815763912 0  0.5 0.4707048677449264 0  0.5 0.4804459958733726 0  0.5 0.4902110204680924 0  0.4900000000000277 0.5 0  0.4800000000000555 0.5 0  0.4700000000000832 0.5 0  0.4600000000001109 0.5 0  0.4500000000001387 0.5 0  0.4400000000001664 0.5 0  0.4300000000001942 0.5 0  0.4200000000002219 0.5 0  0.4100000000002497 0.5 0  0.4000000000002774 0.5 0  0.3900000000003052 0.5 0  0.3800000000003328 0.5 0  0.3700000000003606 0.5 0  0.3600000000003883 0.5 0  0.3500000000004161 0.5 0  0.3400000000004438 0.5 0  0.3300000000004716 0.5 0  0.3200000000004993 0.5 0  0.3100000000005271 0.5 0  0.3000000000005548 0.5 0  0.2900000000005825 0.5 0  0.2800000000006103 0.5 0  0.2700000000006381 0.5 0  0.2600000000006658 0.5 0  0.2500000000006935 0.5 0  0.2400000000007212 0.5 0  0.230000000000749 0.5 0  0.2200000000007767 0.5 0  0.2100000000008044 0.5 0  0.2000000000008322 0.5 0  0.19000000000086 0.5 0  0.1800000000008877 0.5 0  0.1700000000009154 0.5 0  0.1600000000009431 0.5 0  0.1500000000009709 0.5 0  0.1400000000009986 0.5 0  0.1300000000010264 0.5 0  0.1200000000010541 0.5 0  0.1100000000010818 0.5 0  0.1000000000011096 0.5 0  0.09000000000113734 0.5 0  0.08000000000116503 0.5 0  0.07000000000119283 0.5 0  0.06000000000122058 0.5 0  0.05000000000124827 0.5 0  0.04000000000127607 0.5 0  0.03000000000130376 0.5 0  0.02000000000133151 0.5 0  0.01000000000135925 0.5 0  1.376121439022882e-12 0.5 0  -0.009999999998640763 0.5 0  -0.01999999999866864 0.5 0  -0.02999999999869629 0.5 0  -0.03999999999872406 0.5 0  -0.04999999999875182 0.5 0  -0.05999999999877947 0.5 0  -0.06999999999880724 0.5 0  -0.079999999998835 0.5 0  -0.08999999999886266 0.5 0  -0.09999999999889042 0.5 0  -0.1099999999989182 0.5 0  -0.1199999999989459 0.5 0  -0.1299999999989737 0.5 0  -0.1399999999990014 0.5 0  -0.1499999999990291 0.5 0  -0.1599999999990568 0.5 0  -0.1699999999990847 0.5 0  -0.1799999999991124 0.5 0  -0.1899999999991401 0.5 0  -0.1999999999991678 0.5 0  -0.2099999999991955 0.5 0  -0.2199999999992234 0.5 0  -0.2299999999992511 0.5 0  -0.2399999999992788 0.5 0  -0.2499999999993066 0.5 0  -0.2599999999993342 0.5 0  -0.269999999999362 0.5 0  -0.2799999999993897 0.5 0  -0.2899999999994175 0.5 0  -0.2999999999994452 0.5 0  -0.3099999999994729 0.5 0  -0.3199999999995007 0.5 0  -0.3299999999995284 0.5 0  -0.3399999999995562 0.5 0  -0.3499999999995839 0.5 0  -0.3599999999996116 0.5 0  -0.3699999999996393 0.5 0  -0.379999999999667 0.5 0  -0.3899999999996949 0.5 0  -0.3999999999997226 0.5 0  -0.4099999999997503 0.5 0  -0.419999999999778 0.5 0  -0.4299999999998058 0.5 0  -0.4399999999998336 0.5 0  -0.4499999999998613 0.5 0  -0.4599999999998891 0.5 0  -0.4699999999999167 0.5 0  -0.4799999999999445 0.5 0  -0.4899999999999722 0.5 0  -0.5 0.4902110204681464 0  -0.5 0.4804459958734807 0  -0.5 0.4707048677450883 0  -0.5 0.4609875815766065 0  -0.5 0.4512940759251849 0  -0.5 0.4416242912883993 0  -0.5 0.4319781678689807 0  -0.5 0.4223556545383647 0  -0.5 0.4127566896324213 0  -0.5 0.4031812128200121 0  -0.5 0.3936291733057916 0  -0.5 0.3841005081172659 0  -0.5 0.3745951585781932 0  -0.5 0.3651130778999337 0  -0.5 0.3556541993788045 0  -0.5 0.3462184677228392 0  -0.5 0.3368058273705318 0  -0.5 0.3274162224888609 0  -0.5 0.3180495969712945 0  -0.5 0.3087058944357755 0  -0.5 0.299385058222682 0  -0.5 0.2900870313927414 0  -0.5 0.2808117567250807 0  -0.5 0.2715591844628491 0  -0.5 0.2623292564012653 0  -0.5 0.253121909553727 0  -0.5 0.2439371050851549 0  -0.5 0.2347747685524501 0  -0.5 0.2256348634421331 0  -0.5 0.2165173209784076 0  -0.5 0.207422087829958 0  -0.5 0.1983491207029381 0  -0.5 0.1892983550950482 0  -0.5 0.1802697378305253 0  -0.5 0.1712632154965152 0  -0.5 0.1622787344187354 0  -0.5 0.1533162406595534 0  -0.5 0.1443756800160514 0  -0.5 0.1354569980180493 0  -0.5 0.1265601399261414 0  -0.5 0.1176850622761093 0  -0.5 0.1088317009011999 0  -0.5 0.09167500000001694 0  -0.5 0.08335000000003931 0  -0.5 0.07502500000006167 0  -0.5 0.06670000000008947 0  -0.5 0.05837500000011001 0  -0.5 0.0500500000001328 0  -0.5 0.0417250000001127 0  -0.5 0.03340000000008944 0  -0.5 0.02507500000006573 0  -0.5 0.01675000000004653 0  -0.5 0.008425000000027341 
[...]
<PointData  Scalars="f_40"> 
<DataArray  type="Float64"  Name="f_40"  format="ascii">-8.5091997251605527e+00  -7.2305370768423721e-02  -1.8632725700495265e+00  -4.6120024228466133e-01  3.0300000000000000e+02  3.0300000000000000e+02  -2.1945053466825858e-04  -2.2469478458578092e-04  -4.9272116195089422e-01  -4.7177076320355327e-01  1.2590446037582720e-02  1.0529087711476625e-02  -3.5605006830697554e-02  -1.4150189939054481e-02  -2.2829772730596646e-03  4.3345473953963079e-03  6.2876810467949098e-03  6.4304107710997389e-03  4.8269270840835396e-03  6.6481946660327336e-04  -3.1029849968256607e-03  -8.6355613266121470e-03  -1.4051459279088073e-02  -2.0626436542441680e-02  -2.8169782061667956e-02  -3.4843581437883978e-02  -4.1361265632209404e-02  -4.9569063160370873e-02  -5.7387531434782826e-02  -6.7101320508737433e-02  -7.5589041055788564e-02  -8.5632167948800603e-02  -9.5598776786074341e-02  -1.0509516667076070e-01  -1.1562130618495368e-01  -1.2597603067596638e-01  -1.3717627506105293e-01  -1.4720310750020479e-01  -1.5851552086700343e-01  -1.7218172321508801e-01  -1.8427927976152969e-01  -1.9655471679618236e-01  -2.0932439780712364e-01  -2.2173529396209873e-01  -2.3540634497963833e-01  -2.4922268809014855e-01  -2.6383005483890531e-01  -2.7758365308296279e-01  -2.9153611480660724e-01  -3.0611844492507118e-01  -3.2144142642278001e-01  -3.3612010752157195e-01  -3.5149738889106835e-01  -3.6714336097561623e-01  -3.8181487361948568e-01  -3.9745896836167860e-01  -4.1258503791877854e-01  -4.2994272631180480e-01  -4.4403908654243623e-01  -4.5939420148134452e-01  -4.7404372764854252e-01  -4.8891425514757070e-01  -5.0367670768524098e-01  -5.1600865862703427e-01  -5.3131434119302035e-01  -5.4675984556115054e-01  -5.5954690080783853e-01  -5.7174438021549145e-01  -5.8507079364843828e-01  -5.9575890340681514e-01  -6.0889740027025963e-01  -6.1973386403554243e-01  -6.3121094019665458e-01  -6.4338353965200046e-01  -6.5211995141137602e-01  -6.6236665173792708e-01  -6.7167043140912053e-01  -6.8024053504369597e-01  -6.9064264370423745e-01  -6.9786207011487877e-01  -7.0619152087313153e-01  -7.1373676457604562e-01  -7.2153874646959737e-01  -7.3033412193163871e-01  -7.3806362184115559e-01  -7.4274039851765405e-01  -7.4968546458673657e-01  -7.5583519122684151e-01  -7.6161624535783801e-01  -7.6863471195915678e-01  -7.7613807297836934e-01  -7.8181760733988714e-01  -7.9001634817619848e-01  -7.9672019105776892e-01  -8.0420877934740953e-01  -8.1038855882325145e-01  -8.1914737674811022e-01  -8.2865700825490374e-01  -8.3852944367555760e-01  -8.5185729397534693e-01  -8.6334697395253313e-01  -8.7562358501082116e-01  -8.9479670081137952e-01  -9.1620683676918346e-01  -9.3724684676519721e-01  -9.6645976518754562e-01  -1.0091996283805540e+00  -1.0657386687437476e+00  -1.1397295363983491e+00  -1.2502476984599920e+00  -1.4784428112111976e+00  -1.3688702989464889e+00  -1.0315091133305720e+00  -8.8353897127607128e-01  -8.0808434623454550e-01  -7.5183318586408554e-01  -7.1185364214045832e-01  -6.8745296985048554e-01  -6.6771610618341881e-01  -6.4986946209639562e-01  -6.3778050408879583e-01  -6.2368768502762528e-01  -6.1581554438509167e-01  -6.0486156194289509e-01  -5.9884592331043940e-01  -5.9064990402996242e-01  -5.8525412833564983e-01  -5.7916142253182534e-01  -5.7386983055469953e-01  -5.6879968757166088e-01  -5.6353293129784154e-01  -5.5891681673051519e-01  -5.5447116482968895e-01  -5.4992095396648322e-01  -5.4509497682467545e-01  -5.4044843602584203e-01  -5.3570627611869681e-01  -5.3174701256248336e-01  -5.2803165027072618e-01  -5.2332081066443881e-01  -5.1907974521330924e-01  -5.1457424122373052e-01  -5.1054896529080585e-01  -5.0607575239012836e-01  -5.0246466760600894e-01  -4.9865212473285087e-01  -4.9484410551677993e-01  -4.9066662476760514e-01  -4.8723563007071707e-01  -4.8341662719350803e-01  -4.8055363905809145e-01  -4.7734040416300000e-01  -4.7438232797172791e-01  -4.6901564792980077e-01  -4.6731782398768013e-01  -4.6511633504818001e-01  -4.6370338156616298e-01  -4.6289203432876169e-01  -4.6070919126723042e-01  -4.6007863501520280e-01  -4.5987342640557061e-01  -4.5998830752580694e-01  -4.5976026375929502e-01  -4.6023668123143863e-01  -4.6201469201291934e-01  -4.6357825079727766e-01  -4.6501004491217485e-01  -4.6690426257350287e-01  -4.6959965953074256e-01  -4.7181862577043082e-01  -4.7434963919909634e-01  -4.7810992056277707e-01  -4.8161527839932172e-01  -4.8448810819529331e-01  -4.8848441516010754e-01  -4.9750903975249450e-01  -5.0245403010492939e-01  -5.0745585013602124e-01  -5.1180192879045505e-01  -5.1787844796609994e-01  -5.2295761279120423e-01  -5.2926818038535073e-01  -5.3464497162007096e-01  -5.4064880110970126e-01  -5.4585155231113269e-01  -5.5219931458840954e-01  -5.5768160466200933e-01  -5.6399670397815915e-01  -5.7009420878241701e-01  -5.7567657667503169e-01  -5.8124242204200505e-01  -5.8664469165699529e-01  -5.9238223984940985e-01  -5.9789696163116302e-01  -6.0350582322964974e-01  -6.0907164952124238e-01  -6.1342745396304899e-01  -6.1860716755481882e-01  -6.2263316792313983e-01  -6.2763286332395118e-01  -6.3220630121838928e-01  -6.3616877572829689e-01  -6.3939931321552412e-01  -6.4372133520029406e-01  -6.4643621728178102e-01  -6.5026057902703105e-01  -6.5286889766426826e-01  -6.5600281069436672e-01  -6.5843977345971150e-01  -6.6047567851402866e-01  -6.6304237982310721e-01  -6.6435509935587567e-01  -6.6585552126893865e-01  -6.6474149581140229e-01  -7.9123672676296808e-01  -5.9188418623492067e-01  -2.0517981729390620e+00  3.0300000000000000e+02  3.0300000000000000e+02  3.0300000000000000e+02  3.0300000000000000e+02  3.0300000000000000e+02  3.0300000000000000e+02  3.0300000000000000e+02  3.0300000000000000e+02  3.0300000000000000e+02  3.0300000000000000e+02  3.0300000000000000e+02  3.0300000000000000e+02  3.0300000000000000e+02  3.0300000000000000e+02  3.0300000000000000e+02  3.0300000000000000e+02  3.0300000000000000e+02  3.0300000000000000e+02  3.0300000000000000e+02  3.0300000000000000e+02  3.0300000000000000e+02  3.0300000000000000e+02  3.0300000000000000e+02  3.0300000000000000e+02  3.0300000000000000e+02  3.0300000000000000e+02  3.0300000000000000e+02  3.0300000000000000e+02  3.0300000000000000e+02  3.0300000000000000e+02  3.0300000000000000e+02  3.0300000000000000e+02  3.0300000000000000e+02  3.0300000000000000e+02  3.0300000000000000e+02  3.0300000000000000e+02  3.0300000000000000e+02  3.0300000000000000e+02  3.0300000000000000e+02  3.0300000000000000e+02  3.0300000000000000e+02  3.0300000000000000e+02  3.0300000000000000e+02  3.0300000000000000e+02  3.0300000000000000e+02  3.0300000000000000e+02  3.0300000000000000e+02  3.0300000000000000e+02  3.0300000000000000e+02  3.0300000000000000e+02  3.0300000000000000e+02  3.0300000000000000e+02  3.0300000000000000e+02  3.0300000000000000e+02  3.0300000000000000e+02  3.0300000000000000e+02  3.0300000000000000e+02  3.0300000000000000e+02  3.0300000000000000e+02  3.0300000000000000e+02  3.0300000000000000e+02  3.0300000000000000e+02  3.0300000000000000e+02  3.0300000000000000e+02  3.0300000000000000e+02  3.0300000000000000e+02  3.0300000000000000e+02  3.0300000000000000e+02  3.0300000000000000e+02  3.0300000000000000e+02  3.0300000000000000e+02  3.0300000000000000e+02  3.0300000000000000e+02  3.0300000000000000e+02  3.0300000000000000e+02  3.0300000000000000e+02  3.0300000000000000e+02  3.0300000000000000e+02  3.0300000000000000e+02  3.0300000000000000e+02  3.0300000000000000e+02  3.0300000000000000e+02  3.0300000000000000e+02  3.0300000000000000e+02  3.0300000000000000e+02  3.0300000000000000e+02  3.0300000000000000e+02  3.0300000000000000e+02  3.0300000000000000e+02  3.0300000000000000e+02  3.0300000000000000e+02  3.0300000000000000e+02  3.0300000000000000e+02  3.0300000000000000e+02  3.0300000000000000e+02  3.0300000000000000e+02  3.0300000000000000e+02  3.0300000000000000e+02  3.0300000000000000e+02  -7.8095862495920498e-01  2.0650531072815623e-01  3.2676937369789223e-02  1.1946030007541748e-01  1.1702105527429046e-01  1.1641051259738677e-01  1.1633909262661256e-01  1.1531363170009891e-01  1.1394721847312744e-01  1.1319155732823637e-01  1.1241467691307960e-01  1.1047262718535251e-01  1.0888611078422862e-01  1.0763653995364268e-01  1.0525135973704250e-01  1.0406544572782227e-01  1.0197781769837810e-01  9.9565181055038185e-02  9.7344694063718776e-02  9.4819503682815734e-02  9.2836205974029931e-02  8.9256838580317438e-02  8.6732664605569207e-02  8.3461673911262385e-02  7.9711855721393721e-02  7.6695229163786863e-02  7.3386359562358658e-02  7.0020252314848819e-02  6.5399706486087811e-02  6.1975168252307047e-02  5.6817226003255131e-02  5.3506853731090979e-02  4.9945998097735492e-02  4.4792847075262342e-02  4.1075623622254039e-02  3.6925352795150877e-02  3.2597893367896182e-02  2.8166581040207979e-02  2.4131781667007319e-02  2.0528797036427140e-02  1.6966938039010636e-02  1.3780089939614078e-02  7.7544472436149097e-03  5.5752797920323996e-03  3.5520939108615139e-03  2.2356733896178849e-03  1.0932117174400511e-03  6.8490861524682814e-05  -2.3509966331670596e-04  -4.0338773048005476e-04  -3.6846528729480378e-04  -3.1419528572755048e-04  -2.3616331595958937e-04  -5.6831676115400270e-04  -1.1764625813042895e-03  -1.3921139336073958e-03  -1.2361426709748043e-03  -6.4204537897877509e-05  1.7237933753544770e-03  4.1080166466774060e-03  6.1375553476553822e-03  9.6203287556484701e-03  1.4563738897377844e-02  1.8907317954095743e-02  2.3353769855177849e-02  2.9799323547074950e-02  3.4704431648087966e-02  4.0653853836054007e-02  4.7941198657920944e-02  5.2577510785752832e-02  5.9498432542526548e-02  6.8593864237194005e-02  7.5673104856072093e-02  8.2301980722518445e-02  9.0934195663407394e-02  9.5670163578127215e-02  1.0349936786255488e-01  1.1452082996515327e-01  1.2251297427418280e-01  1.2996279937682409e-01  1.3938338935993258e-01  1.4370665150647152e-01  1.5210471366190700e-01  1.6470412640556301e-01  1.7350833170122917e-01  1.8159478029417883e-01  1.9115571880876109e-01  1.9516748261438724e-01  2.0382464497371172e-01  2.1702442163609237e-01  2.2534073503633378e-01  2.3419060664518490e-01  2.4386272349408966e-01  2.4861934470201921e-01  2.5764695929654080e-01  2.6936375613280400e-01  2.7944419910166496e-01  2.8755844243753093e-01  2.9236472753615145e-01  2.9842054596092088e-01  3.0384656949362715e-01  3.0198055786187605e-01  3.0149110030161913e-01  2.7587323384440232e-01  2.3295781131169951e-01  1.1959310409100384e-01  -4.7696763072974313e-01  -3.7125159242186760e+00  -3.5103705879517353e+00  -3.7132507816759519e-01  1.8335157814412828e-01  2.8098072828469478e-01  3.1815262168429242e-01  3.3830110385814849e-01  3.3058762134368197e-01  3.2825767293463232e-01  3.2050787275459092e-01  3.1372146423571196e-01  3.0934707932814970e-01  2.9929076222631007e-01  2.8585959980589581e-01  2.7208663509922831e-01  2.6230884751591849e-01  2.5741303567491547e-01  2.4809867281263348e-01  2.3875997584863118e-01  2.2822580264938616e-01  2.1413632979504330e-01  2.0492405752011200e-01  2.0055315501115392e-01  1.9045263450613431e-01  1.8211190739206656e-01  1.7303292280337065e-01  1.6036596390019209e-01  1.5168693055528998e-01  1.4710809399734984e-01  1.3734917618923606e-01  1.2955114171986437e-01  1.2146270239414006e-01  1.1049174780254069e-01  1.0255874582897946e-01  9.7633907237586373e-02  8.8733590774204812e-02  8.1716006086271400e-02  7.4530405285764073e-02  6.5366526278328257e-02  5.8180716822625260e-02  5.3174586101852037e-02  4.5450642448445412e-02  3.9318530009563431e-02  3.4082335359974243e-02  2.7244265945931802e-02  2.2460579834053709e-02  1.7678710366389599e-02  1.2248520797182598e-02  8.1663447682653774e-03  5.7647104707015421e-03  3.1042589570105042e-03  8.0767335068240192e-04  -7.6543907305727694e-04  -1.1521576279070720e-03  -1.0761525190745825e-03  -5.5764054603284381e-04  -2.3677472499580136e-04  -2.8719359611881879e-04  -3.0880853386005847e-04  -2.6986652924501317e-04  3.4203631764414611e-05  4.7386402684377205e-04  1.7295550069544631e-03  3.1274665074345321e-03  4.7008710247978310e-03  7.0201249910136080e-03  9.5239893655936648e-03  1.6199718958978589e-02  1.9568773585750321e-02  2.3617931973774431e-02  2.7507299822926583e-02  3.1733432389910686e-02  3.6237327302597398e-02  4.0725529053648443e-02  4.4972952290053825e-02  4.8487599652111246e-02  5.3472692550175713e-02  5.6984524146100030e-02  5.9903538177178500e-02  6.4548119843379090e-02  6.7468666384716505e-02  7.1170349115019155e-02  7.3898138117392931e-02  7.6317803841387130e-02  7.8066867853337690e-02  8.0298993089719273e-02  8.2109161001253150e-02  8.2951817696647598e-02  8.4135695203670410e-02  8.4381096326957991e-02  8.3883108966962536e-02  8.3653866687652317e-02  8.2553009771287877e-02  8.1435408368507323e-02  7.8922774688368252e-02  7.6401573495669742e-02  7.4049238278085447e-02  6.9528742522697404e-02  6.6318209825257310e-02  6.1028502456691128e-02  5.4563303095422171e-02  4.8347515884240258e-02  4.1506686754051898e-02  3.2259739315746154e-02  2.1570777528585137e-02  8.8072433669270297e-03  -3.9180924765892513e-03  -2.2118705676604365e-02  -4.8945390647875946e-02  1.1544783168497101e-02  1.2809800468625225e-02  1.3907649040933846e-02  1.4527029046148518e-02  1.5623545216182163e-02  1.6011565030256459e-02  1.7008818023023460e-02  1.7484304546037034e-02  1.7852815206934946e-02  1.8862513758452708e-02  1.9381810238849224e-02  1.9942949059303158e-02  2.0493939758221759e-02  2.1159616506040285e-02  2.2152529774337619e-02  2.2418609070544805e-02  2.3258335020828826e-02  2.3801193696704279e-02  2.4021029651839148e-02  2.4769168464407954e-02  2.4611272233507942e-02  2.5497958080012706e-02  2.4784153603768490e-02  2.4858959503400817e-02  2.5133815472855345e-02  2.3886839984060000e-02  2.3164520610616659e-02  2.2605938484961299e-02  1.9980730404757209e-02  1.8215912497655924e-02  1.6442948054495799e-02  1.2797867067978298e-02  9.5688488660993169e-03  5.2407734545159637e-03  -9.3023789720694697e-04  -4.9952716805945572e-03  -1.2903955990807136e-02  -2.0946730319036690e-02  -3.0287879352885409e-02  -4.2355511094133026e-02  -5.3022792680679769e-02  -6.8409533004708811e-02  -8.4489810028741369e-02  -1.0297039936602008e-01  -1.2640462662539811e-01  -1.5165805538307681e-01  -1.7771553554830219e-01  -2.0793280513697612e-01  -2.4392390573300785e-01  -2.7712296519758473e-01  -3.2321042032017488e-01  -3.6870841636184365e-01  -4.1672728142671173e-01  -4.6695455860201079e-01  -5.1465425464027370e-01  -5.5862828890136018e-01  -6.0895224698149242e-01  -6.4111776531522136e-01  -6.8358601743139202e-01  -7.1016729309530235e-01  -7.3030063344716201e-01  -7.4600533997968377e-01  -7.5936358982910312e-01  -7.6351370965274379e-01  -7.6969731098300886e-01  -7.6649744311149359e-01  -7.6828484510061157e-01  -7.6172336238303329e-01  -7.5695818926092728e-01  -7.4999160232942719e-01  -7.4282546256092263e-01  -7.3824545830840138e-01  -7.2798564515432052e-01  -7.2001250555217511e-01  -7.1376089944947196e-01  -7.0610000058598532e-01  -6.9801935470944587e-01  -6.9202119811134055e-01  -6.8401062571292126e-01  -6.7645119464973802e-01  -6.7142355918894092e-01  -6.6368041586264670e-01  -6.5733396066956284e-01  -6.5076510982445968e-01  -6.4481015277777420e-01  -6.3907905148986976e-01  -6.3323519598876932e-01  -6.2710128244893371e-01  -6.2144936335695233e-01  -6.1596522576859969e-01  -6.1104895006082083e-01  -6.0536501462496795e-01  -6.0005858821789804e-01  -5.9443657261986382e-01  -5.8936564750310561e-01  -5.8427967160550587e-01  -5.7908294789215331e-01  -5.7384144514005631e-01  -5.6818040257076430e-01  -5.6295833892346736e-01  -5.5764089700261399e-01  -5.5185124026451271e-01  -5.4633169041616148e-01  -5.4106647581874756e-01  -5.3492671981373530e-01  -5.2955338832068510e-01  -5.2308914995811473e-01  -5.1676839290817245e-01  -5.1089823130621426e-01  -5.0427749399721755e-01  -4.9785472361948624e-01  1.3318422155706791e-02  1.4202758377286346e-02  1.4895998128437227e-02  1.5163906768457306e-02  1.5920081245735507e-02  1.5974127757056863e-02  1.6644862657612006e-02  1.6853538342680545e-02  1.6914379060821404e-02  1.7664245725058408e-02  1.7949951737490373e-02  1.8227497325184052e-02  1.8586901962853997e-02  1.9050042591355582e-02  1.9803584642953277e-02  1.9857981062577468e-02  2.0459572163619197e-02  2.0926519060033830e-02  2.0961654553624903e-02  2.1480536450930638e-02  2.1154719015018374e-02  2.1965153992668785e-02  2.1102391299732702e-02  2.0950424895065968e-02  2.1219306908298666e-02  1.9695563827895467e-02  1.8862537340484736e-02  1.8367121006903023e-02  1.5509749258226539e-02  1.3678232205812161e-02  1.2024826941604094e-02  8.1444134041499788e-03  5.0295612764290265e-03  7.3334609064790721e-04  -5.7014432641364320e-03  -9.4408363215780569e-03  -1.7317859353851349e-02  -2.5392753489030667e-02  -3.4507513545889351e-02  -4.6268633104576865e-02  -5.7067498070867279e-02  -7.2252936060213657e-02  -8.7987796957051695e-02  -1.0648340094169792e-01  -1.2952409824738301e-01  -1.5440369046253247e-01  -1.8044463085850057e-01  -2.1063292094847169e-01  -2.4599301345794714e-01  -2.7931334606561486e-01  -3.2517765928109932e-01  -3.7077211096941248e-01  -4.1957585409516840e-01  -4.7006330828167636e-01  -5.1745833502679661e-01  -5.6226276517298079e-01  -6.1365007107806790e-01  -6.4667498324440398e-01  -6.8941646630593501e-01  -7.1783747802342768e-01  -7.3920524496060747e-01  -7.5599756807829332e-01  -7.7062357675662729e-01  -7.7640262477154531e-01  -7.8332270092822076e-01  -7.8108310144405280e-01  -7.8395540570888278e-01  -7.7813621954397394e-01  -7.7391891949773284e-01  -7.6766809027946692e-01  -7.6094860435296263e-01  -7.5683468467554971e-01  -7.4685121046475189e-01  -7.3908499978237097e-01  -7.3293475253030915e-01  -7.2532396172837910e-01  -7.1723236701144721e-01  -7.1104300750263683e-01  -7.0298773177435359e-01  -6.9529500811802292e-01  -6.8981165662510835e-01  -6.8174166942037584e-01  -6.7502819808790504e-01  -6.6804627547209716e-01  -6.6142051976875893e-01  -6.5513881250466455e-01  -6.4855155878372739e-01  -6.4154757749951485e-01  -6.3515713119092609e-01  -6.2862902301158485e-01  -6.2286933489691665e-01  -6.1604212633778654e-01  -6.0967738024830165e-01  -6.0284110804986701e-01  -5.9650966620631451e-01  -5.9026845061109290e-01  -5.8371353945299942e-01  -5.7698823069904870e-01  -5.6988764729602004e-01  -5.6308658021656854e-01  -5.5611287371520779e-01  -5.4860381403057290e-01  -5.4143647999558286e-01  -5.3442172699211543e-01  -5.2653782076294064e-01  -5.1940126399538933e-01  -5.1100674005663704e-01  -5.0301443675386714e-01  -4.9489805440822904e-01  -4.8651525777997595e-01  -4.7791130797428699e-01  -5.4438658316709638e+00  -3.2260097141093023e+00  -2.3997353583472769e+00  -1.9491338594542278e+00  -1.6657069323779898e+00  -1.4895505680347334e+00  -1.3532719736587058e+00  -1.2454700361722153e+00  -1.1678768223071740e+00  -1.0979163969671368e+00  -1.0463528960690673e+00  -9.9842163299797315e-01  -9.6246082968248536e-01  -9.2288325973189067e-01  -8.9603989874799939e-01  -8.6624490571553225e-01  -8.4300573690877745e-01  -8.2355678112093611e-01  -8.0346509234539421e-01  -7.8463882620223813e-01  -7.7080382548938109e-01  -7.5315779604012512e-01  -7.4064667303564191e-01  -7.2958226181748254e-01  -7.1637654070624490e-01  -7.0464434113146579e-01  -6.9388524293389897e-01  -6.8421643645133912e-01  -6.7531132688487994e-01  -6.6561828699451508e-01  -6.5697156341063112e-01  -6.4808059929841300e-01  -6.3982525055002315e-01  -6.3179514635421752e-01  -6.2452471559384071e-01  -6.1699571426429900e-01  -6.0921507068088077e-01  -6.0155374583988197e-01  -5.9421847499897507e-01  -5.8725354941501218e-01  -5.7990195245363985e-01  -5.7244124948931085e-01  -5.6534306764126419e-01  -5.5801825731911003e-01  -5.5083461312070836e-01  -5.4306326954486994e-01  -5.3526443135796453e-01  -5.2768905325461302e-01  -5.1973641220037559e-01  -5.1159003398960634e-01  -5.0329829105686075e-01  -4.9507225049142806e-01  -4.8597816882057404e-01  -4.7742501081133037e-01  -4.6787994767583507e-01  -2.7238547720057049e-01  -6.5667043595472999e-02  -4.903