<?xml version="1.0"?>
<VTKFile type="UnstructuredGrid"  version="0.1"  >
<UnstructuredGrid>
<Piece  NumberOfPoints="15540" NumberOfCells="30546">
<Points>
<DataArray  type="Float64"  NumberOfComponents="3"  format="ascii">0 0 0  -0.5 -0.5 0  0.5 -0.5 0  0.5 0 0  0.5 0.5 0  -0.5 0.5 0  -0.5 0.0001 0  -0.5 -0.0001 0  0.5 0.1 0  0.5 -0.1 0  -0.5 -0.1 0  -0.5 0.1 0  -0.4900000000000277 -0.5 0  -0.4800000000000555 -0.5 0  -0.4700000000000832 -0.5 0  -0.4600000000001109 -0.5 0  -0.4500000000001387 -0.5 0  -0.4400000000001664 -0.5 0  -0.4300000000001942 -0.5 0  -0.4200000000002219 -0.5 0  -0.4100000000002497 -0.5 0  -0.4000000000002774 -0.5 0  -0.3900000000003052 -0.5 0  -0.3800000000003328 -0.5 0  -0.3700000000003606 -0.5 0  -0.3600000000003883 -0.5 0  -0.3500000000004161 -0.5 0  -0.3400000000004438 -0.5 0  -0.3300000000004716 -0.5 0  -0.3200000000004993 -0.5 0  -0.3100000000005271 -0.5 0  -0.3000000000005548 -0.5 0  -0.2900000000005825 -0.5 0  -0.2800000000006103 -0.5 0  -0.2700000000006381 -0.5 0  -0.2600000000006658 -0.5 0  -0.2500000000006935 -0.5 0  -0.2400000000007212 -0.5 0  -0.230000000000749 -0.5 0  -0.2200000000007767 -0.5 0  -0.2100000000008044 -0.5 0  -0.2000000000008322 -0.5 0  -0.19000000000086 -0.5 0  -0.1800000000008877 -0.5 0  -0.1700000000009154 -0.5 0  -0.1600000000009431 -0.5 0  -0.1500000000009709 -0.5 0  -0.1400000000009986 -0.5 0  -0.1300000000010264 -0.5 0  -0.1200000000010541 -0.5 0  -0.1100000000010818 -0.5 0  -0.1000000000011096 -0.5 0  -0.09000000000113734 -0.5 0  -0.08000000000116503 -0.5 0  -0.07000000000119283 -0.5 0  -0.06000000000122058 -0.5 0  -0.05000000000124827 -0.5 0  -0.04000000000127607 -0.5 0  -0.03000000000130376 -0.5 0  -0.02000000000133151 -0.5 0  -0.01000000000135925 -0.5 0  -1.376121439022882e-12 -0.5 0  0.009999999998640763 -0.5 0  0.01999999999866864 -0.5 0  0.02999999999869629 -0.5 0  0.03999999999872406 -0.5 0  0.04999999999875182 -0.5 0  0.05999999999877947 -0.5 0  0.06999999999880724 -0.5 0  0.079999999998835 -0.5 0  0.08999999999886266 -0.5 0  0.09999999999889042 -0.5 0  0.1099999999989182 -0.5 0  0.1199999999989459 -0.5 0  0.1299999999989737 -0.5 0  0.1399999999990014 -0.5 0  0.1499999999990291 -0.5 0  0.1599999999990568 -0.5 0  0.1699999999990847 -0.5 0  0.1799999999991124 -0.5 0  0.1899999999991401 -0.5 0  0.1999999999991678 -0.5 0  0.2099999999991955 -0.5 0  0.2199999999992234 -0.5 0  0.2299999999992511 -0.5 0  0.2399999999992788 -0.5 0  0.2499999999993066 -0.5 0  0.2599999999993342 -0.5 0  0.269999999999362 -0.5 0  0.2799999999993897 -0.5 0  0.2899999999994175 -0.5 0  0.2999999999994452 -0.5 0  0.3099999999994729 -0.5 0  0.3199999999995007 -0.5 0  0.3299999999995284 -0.5 0  0.3399999999995562 -0.5 0  0.3499999999995839 -0.5 0  0.3599999999996116 -0.5 0  0.3699999999996393 -0.5 0  0.379999999999667 -0.5 0  0.3899999999996949 -0.5 0  0.3999999999997226 -0.5 0  0.4099999999997503 -0.5 0  0.419999999999778 -0.5 0  0.4299999999998058 -0.5 0  0.4399999999998336 -0.5 0  0.4499999999998613 -0.5 0  0.4599999999998891 -0.5 0  0.4699999999999167 -0.5 0  0.4799999999999445 -0.5 0  0.4899999999999722 -0.5 0  0.5 -0.4902110204681464 0  0.5 -0.4804459958734807 0  0.5 -0.4707048677450883 0  0.5 -0.4609875815766065 0  0.5 -0.4512940759251849 0  0.5 -0.4416242912883993 0  0.5 -0.4319781678689807 0  0.5 -0.4223556545383647 0  0.5 -0.4127566896324213 0  0.5 -0.4031812128200121 0  0.5 -0.3936291733057916 0  0.5 -0.3841005081172659 0  0.5 -0.3745951585781932 0  0.5 -0.3651130778999337 0  0.5 -0.3556541993788045 0  0.5 -0.3462184677228392 0  0.5 -0.3368058273705318 0  0.5 -0.3274162224888609 0  0.5 -0.3180495969712945 0  0.5 -0.3087058944357755 0  0.5 -0.299385058222682 0  0.5 -0.2900870313927414 0  0.5 -0.2808117567250807 0  0.5 -0.2715591844628491 0  0.5 -0.2623292564012653 0  0.5 -0.253121909553727 0  0.5 -0.2439371050851549 0  0.5 -0.2347747685524501 0  0.5 -0.2256348634421331 0  0.5 -0.2165173209784076 0  0.5 -0.207422087829958 0  0.5 -0.1983491207029381 0  0.5 -0.1892983550950482 0  0.5 -0.1802697378305253 0  0.5 -0.1712632154965152 0  0.5 -0.1622787344187354 0  0.5 -0.1533162406595534 0  0.5 -0.1443756800160514 0  0.5 -0.1354569980180493 0  0.5 -0.1265601399261414 0  0.5 -0.1176850622761093 0  0.5 -0.1088317009011999 0  0.5 -0.09166666666668973 0  0.5 -0.08333333333337943 0  0.5 -0.07500000000006915 0  0.5 -0.06666666666675886 0  0.5 -0.05833333333344858 0  0.5 -0.05000000000013693 0  0.5 -0.04166666666678191 0  0.5 -0.03333333333342643 0  0.5 -0.02500000000006916 0  0.5 -0.01666666666671188 0  0.5 -0.00833333333335548 0  0.5 0.008333333333318314 0  0.5 0.01666666666663358 0  0.5 0.02499999999994162 0  0.5 0.03333333333325101 0  0.5 0.04166666666655769 0  0.5 0.04999999999986843 0  0.5 0.05833333333322258 0  0.5 0.06666666666657715 0  0.5 0.07499999999993352 0  0.5 0.08333333333328992 0  0.5 0.09166666666664541 0  0.5 0.1088317009011616 0  0.5 0.1176850622760307 0  0.5 0.1265601399260203 0  0.5 0.1354569980178909 0  0.5 0.1443756800158549 0  0.5 0.153316240659315 0  0.5 0.1622787344184454 0  0.5 0.1712632154961752 0  0.5 0.1802697378301332 0  0.5 0.1892983550946039 0  0.5 0.1983491207024433 0  0.5 0.2074220878294123 0  0.5 0.216517320977811 0  0.5 0.2256348634414833 0  0.5 0.2347747685517479 0  0.5 0.2439371050844009 0  0.5 0.2531219095529224 0  0.5 0.2623292564004089 0  0.5 0.2715591844619371 0  0.5 0.2808117567241139 0  0.5 0.290087031391723 0  0.5 0.2993850582216101 0  0.5 0.3087058944347426 0  0.5 0.3180495969703129 0  0.5 0.3274162224879299 0  0.5 0.3368058273696494 0  0.5 0.3462184677220051 0  0.5 0.3556541993780186 0  0.5 0.3651130778991989 0  0.5 0.3745951585775107 0  0.5 0.3841005081166359 0  0.5 0.3936291733052134 0  0.5 0.4031812128194852 0  0.5 0.412756689631945 0  0.5 0.4223556545379392 0  0.5 0.431978167868607 0  0.5 0.4416242912880781 0  0.5 0.4512940759249164 0  0.5 0.4609875815763912 0  0.5 0.4707048677449264 0  0.5 0.4804459958733726 0  0.5 0.4902110204680924 0  0.4900000000000277 0.5 0  0.4800000000000555 0.5 0  0.4700000000000832 0.5 0  0.4600000000001109 0.5 0  0.4500000000001387 0.5 0  0.4400000000001664 0.5 0  0.4300000000001942 0.5 0  0.4200000000002219 0.5 0  0.4100000000002497 0.5 0  0.4000000000002774 0.5 0  0.3900000000003052 0.5 0  0.3800000000003328 0.5 0  0.3700000000003606 0.5 0  0.3600000000003883 0.5 0  0.3500000000004161 0.5 0  0.3400000000004438 0.5 0  0.3300000000004716 0.5 0  0.3200000000004993 0.5 0  0.3100000000005271 0.5 0  0.3000000000005548 0.5 0  0.2900000000005825 0.5 0  0.2800000000006103 0.5 0  0.2700000000006381 0.5 0  0.2600000000006658 0.5 0  0.2500000000006935 0.5 0  0.2400000000007212 0.5 0  0.230000000000749 0.5 0  0.2200000000007767 0.5 0  0.2100000000008044 0.5 0  0.2000000000008322 0.5 0  0.19000000000086 0.5 0  0.1800000000008877 0.5 0  0.1700000000009154 0.5 0  0.1600000000009431 0.5 0  0.1500000000009709 0.5 0  0.1400000000009986 0.5 0  0.1300000000010264 0.5 0  0.1200000000010541 0.5 0  0.1100000000010818 0.5 0  0.1000000000011096 0.5 0  0.09000000000113734 0.5 0  0.08000000000116503 0.5 0  0.07000000000119283 0.5 0  0.06000000000122058 0.5 0  0.05000000000124827 0.5 0  0.04000000000127607 0.5 0  0.03000000000130376 0.5 0  0.02000000000133151 0.5 0  0.01000000000135925 0.5 0  1.376121439022882e-12 0.5 0  -0.009999999998640763 0.5 0  -0.01999999999866864 0.5 0  -0.02999999999869629 0.5 0  -0.03999999999872406 0.5 0  -0.04999999999875182 0.5 0  -0.05999999999877947 0.5 0  -0.06999999999880724 0.5 0  -0.079999999998835 0.5 0  -0.08999999999886266 0.5 0  -0.09999999999889042 0.5 0  -0.1099999999989182 0.5 0  -0.1199999999989459 0.5 0  -0.1299999999989737 0.5 0  -0.1399999999990014 0.5 0  -0.1499999999990291 0.5 0  -0.1599999999990568 0.5 0  -0.1699999999990847 0.5 0  -0.1799999999991124 0.5 0  -0.1899999999991401 0.5 0  -0.1999999999991678 0.5 0  -0.2099999999991955 0.5 0  -0.2199999999992234 0.5 0  -0.2299999999992511 0.5 0  -0.2399999999992788 0.5 0  -0.2499999999993066 0.5 0  -0.2599999999993342 0.5 0  -0.269999999999362 0.5 0  -0.2799999999993897 0.5 0  -0.2899999999994175 0.5 0  -0.2999999999994452 0.5 0  -0.3099999999994729 0.5 0  -0.3199999999995007 0.5 0  -0.3299999999995284 0.5 0  -0.3399999999995562 0.5 0  -0.3499999999995839 0.5 0  -0.3599999999996116 0.5 0  -0.3699999999996393 0.5 0  -0.379999999999667 0.5 0  -0.3899999999996949 0.5 0  -0.3999999999997226 0.5 0  -0.4099999999997503 0.5 0  -0.419999999999778 0.5 0  -0.4299999999998058 0.5 0  -0.4399999999998336 0.5 0  -0.4499999999998613 0.5 0  -0.4599999999998891 0.5 0  -0.4699999999999167 0.5 0  -0.4799999999999445 0.5 0  -0.4899999999999722 0.5 0  -0.5 0.4902110204681464 0  -0.5 0.4804459958734807 0  -0.5 0.4707048677450883 0  -0.5 0.4609875815766065 0  -0.5 0.4512940759251849 0  -0.5 0.4416242912883993 0  -0.5 0.4319781678689807 0  -0.5 0.4223556545383647 0  -0.5 0.4127566896324213 0  -0.5 0.4031812128200121 0  -0.5 0.3936291733057916 0  -0.5 0.3841005081172659 0  -0.5 0.3745951585781932 0  -0.5 0.3651130778999337 0  -0.5 0.3556541993788045 0  -0.5 0.3462184677228392 0  -0.5 0.3368058273705318 0  -0.5 0.3274162224888609 0  -0.5 0.3180495969712945 0  -0.5 0.3087058944357755 0  -0.5 0.299385058222682 0  -0.5 0.2900870313927414 0  -0.5 0.2808117567250807 0  -0.5 0.2715591844628491 0  -0.5 0.2623292564012653 0  -0.5 0.253121909553727 0  -0.5 0.2439371050851549 0  -0.5 0.2347747685524501 0  -0.5 0.2256348634421331 0  -0.5 0.2165173209784076 0  -0.5 0.207422087829958 0  -0.5 0.1983491207029381 0  -0.5 0.1892983550950482 0  -0.5 0.1802697378305253 0  -0.5 0.1712632154965152 0  -0.5 0.1622787344187354 0  -0.5 0.1533162406595534 0  -0.5 0.1443756800160514 0  -0.5 0.1354569980180493 0  -0.5 0.1265601399261414 0  -0.5 0.1176850622761093 0  -0.5 0.1088317009011999 0  -0.5 0.09167500000001694 0  -0.5 0.08335000000003931 0  -0.5 0.07502500000006167 0  -0.5 0.06670000000008947 0  -0.5 0.05837500000011001 0  -0.5 0.0500500000001328 0  -0.5 0.0417250000001127 0  -0.5 0.03340000000008944 0  -0.5 0.02507500000006573 0  -0.5 0.01675000000004653 0  -0.5 0.008425000000027341 
[...]
<PointData  Scalars="f_40"> 
<DataArray  type="Float64"  Name="f_40"  format="ascii">-2.6058987177763688e-02  3.6354523343880945e-05  -2.3798304702268951e-03  -4.1007535859915193e-04  3.0300000000000000e+02  3.0300000000000000e+02  -1.8965878136608707e-07  -1.8277324814872990e-07  -4.5038241331960926e-04  -4.3102482071375711e-04  7.9305913685166291e-06  7.1050224133203432e-06  4.2503116721970647e-05  4.5571147122413327e-05  4.7008115020763992e-05  4.6036833782163698e-05  4.4092558284218379e-05  4.1369330171294171e-05  3.8163345090529334e-05  3.3136581751763599e-05  2.8833500899189690e-05  2.3580818925021421e-05  1.8612429981698278e-05  1.2921353563790913e-05  6.6143058354866166e-06  1.1611015919050610e-06  -4.0299619703467366e-06  -1.0509637815530116e-05  -1.6535763886872888e-05  -2.4033791339328367e-05  -3.0507249128219530e-05  -3.8067120805994799e-05  -4.5535410144603356e-05  -5.2716431989449320e-05  -6.0616571246182935e-05  -6.8385014600352004e-05  -7.6930255957754568e-05  -8.4290513536277800e-05  -9.2891147916796408e-05  -1.0338219572900967e-04  -1.1247594655127175e-04  -1.2197537783070949e-04  -1.3181092426661013e-04  -1.4114071302306303e-04  -1.5188754072232650e-04  -1.6275259873808236e-04  -1.7449326345950138e-04  -1.8552034159251518e-04  -1.9664118330488492e-04  -2.0858230984881706e-04  -2.2093977703359995e-04  -2.3316323052011812e-04  -2.4600585178425347e-04  -2.5934439093403016e-04  -2.7206544572179253e-04  -2.8576251514430921e-04  -2.9877329543448320e-04  -3.1420863698714230e-04  -3.2676708782928676e-04  -3.4096464656122722e-04  -3.5445825575715291e-04  -3.6850706686110461e-04  -3.8248324312534096e-04  -3.9493768356007816e-04  -4.0979268652095952e-04  -4.2517978974951825e-04  -4.3813680978250455e-04  -4.5115251184573942e-04  -4.6495198925141441e-04  -4.7694197792445944e-04  -4.9093297165290876e-04  -5.0332134880931773e-04  -5.1703471068702267e-04  -5.3095282660548611e-04  -5.4193442425895901e-04  -5.5435341193451747e-04  -5.6601495005105464e-04  -5.7780318184697422e-04  -5.9116283528076188e-04  -6.0175912509941888e-04  -6.1329620219037289e-04  -6.2446887741998680e-04  -6.3597355036298854e-04  -6.4876688271112799e-04  -6.6048881710537022e-04  -6.6969907918466908e-04  -6.8094723713436314e-04  -6.9166162117794187e-04  -7.0257979376893008e-04  -7.1432939576733425e-04  -7.2752131532668714e-04  -7.3850791126339407e-04  -7.5307402371930273e-04  -7.6593726603254686e-04  -7.8000165996773270e-04  -7.9306892029984443e-04  -8.0955963274982091e-04  -8.2734512791184502e-04  -8.4631709992232949e-04  -8.7102741292478954e-04  -8.9339469206702884e-04  -9.1862783143809425e-04  -9.5405176316641182e-04  -9.9614886718202593e-04  -1.0373175599099141e-03  -1.0945884034638262e-03  -1.1739086491421296e-03  -1.2814137117945054e-03  -1.4172815470023933e-03  -1.5922358203785151e-03  -1.9096238808600397e-03  -1.6877296605287049e-03  -1.1992586079906903e-03  -9.7382878020720162e-04  -8.5647630900227885e-04  -7.8177201424733467e-04  -7.3218100843814899e-04  -7.0059181548858679e-04  -6.7801679874611182e-04  -6.5886991021577663e-04  -6.4564610549287522e-04  -6.3208235646794182e-04  -6.2320821926868056e-04  -6.1289343807463884e-04  -6.0614458480705410e-04  -5.9814395261470303e-04  -5.9204660205186403e-04  -5.8543774401526765e-04  -5.7956341334158075e-04  -5.7370135658536435e-04  -5.6741532786545174e-04  -5.6155080512909974e-04  -5.5585869160438813e-04  -5.4978832336831081e-04  -5.4335507026680423e-04  -5.3694908306212705e-04  -5.3034798684200408e-04  -5.2448574995602175e-04  -5.1878258847655554e-04  -5.1195864730483795e-04  -5.0549115159387878e-04  -4.9867857841632375e-04  -4.9248591433269666e-04  -4.8562316049306173e-04  -4.7994944321468259e-04  -4.7384661292334304e-04  -4.6787551253044097e-04  -4.6137574923309926e-04  -4.5593647603814667e-04  -4.4990430887360133e-04  -4.4521882759950660e-04  -4.4010371722714823e-04  -4.3534838131238104e-04  -4.2664450632025238e-04  -4.2368087901445542e-04  -4.2008911678193217e-04  -4.1758304278227893e-04  -4.1585366075644293e-04  -4.1237314316540277e-04  -4.1102215210879657e-04  -4.1015457029563101e-04  -4.0976996669979442e-04  -4.0909408157340248e-04  -4.0922629208673268e-04  -4.1079347627584272e-04  -4.1250525080646053e-04  -4.1409061779213119e-04  -4.1638633721175774e-04  -4.1973734819479054e-04  -4.2247099791946119e-04  -4.2576004896502368e-04  -4.3058257087802659e-04  -4.3527176471781212e-04  -4.3917672414527266e-04  -4.4451672209374412e-04  -4.5691766972721519e-04  -4.6373447725566981e-04  -4.7079788966349230e-04  -4.7724082814336257e-04  -4.8572431117740463e-04  -4.9313032324826598e-04  -5.0208730395266048e-04  -5.1010896659037502e-04  -5.1889137780569900e-04  -5.2668810732355725e-04  -5.3605073495950476e-04  -5.4443336356537440e-04  -5.5383395594661461e-04  -5.6299373567784614e-04  -5.7172220853616467e-04  -5.8018266899466896e-04  -5.8846848531104122e-04  -5.9722911186763658e-04  -6.0575054075026808e-04  -6.1431058822768181e-04  -6.2280426839632873e-04  -6.2975530445056943e-04  -6.3770186688497836e-04  -6.4423822253998036e-04  -6.5178540725559307e-04  -6.5871983233989719e-04  -6.6491029900928641e-04  -6.7017170229863407e-04  -6.7655992857985588e-04  -6.8102655901645373e-04  -6.8668166065294497e-04  -6.9093597741674774e-04  -6.9555785073361015e-04  -6.9934434487824583e-04  -7.0242249161530821e-04  -7.0634898910227966e-04  -7.0805178880334546e-04  -7.4911391440697574e-04  1.8936261964474974e-03  -1.2418397000462111e-01  7.5868519880001761e-02  -1.3806450315000525e+00  3.0300000000000000e+02  3.0300000000000000e+02  3.0300000000000000e+02  3.0300000000000000e+02  3.0300000000000000e+02  3.0300000000000000e+02  3.0300000000000000e+02  3.0300000000000000e+02  3.0300000000000000e+02  3.0300000000000000e+02  3.0300000000000000e+02  3.0300000000000000e+02  3.0300000000000000e+02  3.0300000000000000e+02  3.0300000000000000e+02  3.0300000000000000e+02  3.0300000000000000e+02  3.0300000000000000e+02  3.0300000000000000e+02  3.0300000000000000e+02  3.0300000000000000e+02  3.0300000000000000e+02  3.0300000000000000e+02  3.0300000000000000e+02  3.0300000000000000e+02  3.0300000000000000e+02  3.0300000000000000e+02  3.0300000000000000e+02  3.0300000000000000e+02  3.0300000000000000e+02  3.0300000000000000e+02  3.0300000000000000e+02  3.0300000000000000e+02  3.0300000000000000e+02  3.0300000000000000e+02  3.0300000000000000e+02  3.0300000000000000e+02  3.0300000000000000e+02  3.0300000000000000e+02  3.0300000000000000e+02  3.0300000000000000e+02  3.0300000000000000e+02  3.0300000000000000e+02  3.0300000000000000e+02  3.0300000000000000e+02  3.0300000000000000e+02  3.0300000000000000e+02  3.0300000000000000e+02  3.0300000000000000e+02  3.0300000000000000e+02  3.0300000000000000e+02  3.0300000000000000e+02  3.0300000000000000e+02  3.0300000000000000e+02  3.0300000000000000e+02  3.0300000000000000e+02  3.0300000000000000e+02  3.0300000000000000e+02  3.0300000000000000e+02  3.0300000000000000e+02  3.0300000000000000e+02  3.0300000000000000e+02  3.0300000000000000e+02  3.0300000000000000e+02  3.0300000000000000e+02  3.0300000000000000e+02  3.0300000000000000e+02  3.0300000000000000e+02  3.0300000000000000e+02  3.0300000000000000e+02  3.0300000000000000e+02  3.0300000000000000e+02  3.0300000000000000e+02  3.0300000000000000e+02  3.0300000000000000e+02  3.0300000000000000e+02  3.0300000000000000e+02  3.0300000000000000e+02  3.0300000000000000e+02  3.0300000000000000e+02  3.0300000000000000e+02  3.0300000000000000e+02  3.0300000000000000e+02  3.0300000000000000e+02  3.0300000000000000e+02  3.0300000000000000e+02  3.0300000000000000e+02  3.0300000000000000e+02  3.0300000000000000e+02  3.0300000000000000e+02  3.0300000000000000e+02  3.0300000000000000e+02  3.0300000000000000e+02  3.0300000000000000e+02  3.0300000000000000e+02  3.0300000000000000e+02  3.0300000000000000e+02  3.0300000000000000e+02  3.0300000000000000e+02  -8.9929765332768441e-01  8.8397119977672800e-02  -8.4529522075517213e-02  1.6633664604917588e-03  9.1656081062067721e-05  1.1201739437068927e-04  1.1143736985598072e-04  1.1021847456567081e-04  1.0864292971803329e-04  1.0748873201457653e-04  1.0631459348443754e-04  1.0419134172487402e-04  1.0215640418162277e-04  1.0063303206722859e-04  9.7902675831860783e-05  9.6245039223065602e-05  9.3855827929699559e-05  9.1061577774885594e-05  8.8563087112736498e-05  8.5608239735324417e-05  8.3388142899262365e-05  7.9581572338244488e-05  7.6773885138593854e-05  7.3406357324690800e-05  6.9539890970265027e-05  6.6338254195125426e-05  6.3001994937540004e-05  5.9750167851865079e-05  5.5202338950890119e-05  5.1895748958664541e-05  4.7028442049027080e-05  4.3873405925630550e-05  4.0646531198051329e-05  3.5956240017710587e-05  3.2599231289120300e-05  2.8924168241387062e-05  2.5216895064337172e-05  2.1407892480748356e-05  1.8018701716194577e-05  1.5070167092989076e-05  1.2161198506945884e-05  9.6300490236753654e-06  4.9533896760234350e-06  3.3582429144424175e-06  1.8870842054706252e-06  9.9432526512125257e-07  2.5270456451182481e-07  -3.9554343044684991e-07  -5.1135332945954384e-07  -5.0696902779091189e-07  -3.9622847349264999e-07  -3.1164017424171435e-07  -2.1060267488172435e-07  -5.1790933435679233e-07  -1.1565778287057374e-06  -1.5068649471525527e-06  -1.6286934699198463e-06  -1.0477922482792881e-06  -1.6640616342708567e-09  1.5244812064636595e-06  2.8685941504708255e-06  5.3635391572089639e-06  9.0776345223309415e-06  1.2319932161751698e-05  1.5684205085498501e-05  2.0789197785247328e-05  2.4625476558007326e-05  2.9326933649002701e-05  3.5286534126872371e-05  3.9030382056282001e-05  4.4696424692606705e-05  5.2240424513437018e-05  5.7943988596747485e-05  6.3470190923425562e-05  7.0956807746357583e-05  7.4927050436141045e-05  8.1619915122043010e-05  9.1163246940873424e-05  9.7782409772852701e-05  1.0423300863707836e-04  1.1287795883481226e-04  1.1656330929710540e-04  1.2402229944328083e-04  1.3545669932615105e-04  1.4282214146569655e-04  1.5007118408893994e-04  1.5957128611453783e-04  1.6292971497023660e-04  1.7102662072688315e-04  1.8400707383351672e-04  1.9105761653616157e-04  1.9942993305281827e-04  2.1035755348671367e-04  2.1407546308535420e-04  2.2302168777199355e-04  2.3700681904835074e-04  2.4500341132241242e-04  2.5369976052153455e-04  2.6450753326042972e-04  2.6776826438768437e-04  2.7560018748708096e-04  2.8824811302039015e-04  2.9298948859583421e-04  2.9486582337829431e-04  2.9650561704608862e-04  2.8840895372288190e-04  1.4107677679123731e-04  -7.5592183481073315e-03  -5.4768589776663509e-03  2.2068743863348536e-04  3.0656539900549722e-04  3.0501550785638965e-04  3.0322809826221640e-04  3.0147115110140796e-04  2.9418464082787109e-04  2.8081872996844773e-04  2.7247171446659216e-04  2.6913963735742096e-04  2.5935334295134217e-04  2.5007970213575216e-04  2.3996708947949296e-04  2.2512428459229826e-04  2.1592686239694351e-04  2.1221347198861288e-04  2.0183341489989756e-04  1.9340229082305535e-04  1.8490121479012791e-04  1.7168963992594621e-04  1.6344635127099732e-04  1.5980552282292653e-04  1.5011389114948369e-04  1.4278430364259140e-04  1.3544402039726680e-04  1.2434392007481138e-04  1.1691074940009236e-04  1.1304616018243288e-04  1.0439154148147101e-04  9.7852268130367136e-05  9.1395579152257146e-05  8.2266571475188218e-05  7.5766622702845592e-05  7.1771291379882138e-05  6.4366622030361626e-05  5.8779585652475823e-05  5.3245565091603003e-05  4.6019074388564842e-05  4.0452702384385041e-05  3.6631377022271003e-05  3.0665811122199638e-05  2.6092523198357767e-05  2.2244007423348478e-05  1.7163495510371366e-05  1.3767769174601111e-05  1.0427682985161121e-05  6.6192354362507365e-06  3.9107324263153031e-06  2.3989307845138215e-06  8.1064849041128135e-07  -4.8241737647048070e-07  -1.2673517784847291e-06  -1.2866607742147346e-06  -1.0365772468028856e-06  -4.8443468673085191e-07  -2.0012302207593796e-07  -2.7972812019363061e-07  -3.4086054562926608e-07  -4.0237308566758509e-07  -3.2648092706165815e-07  -1.3745812003152556e-07  6.1265599362973057e-07  1.4642550912811657e-06  2.4610726976703160e-06  4.0268835701087496e-06  5.7267029088402809e-06  1.0526796068862642e-05  1.3000822990755600e-05  1.6074588509275318e-05  1.9014017579809226e-05  2.2319044036007755e-05  2.5930263520222734e-05  2.9508701467401722e-05  3.3013713694638175e-05  3.5991373595240059e-05  4.0275224533607286e-05  4.3270309319058334e-05  4.5949367858199404e-05  5.0157427189206251e-05  5.2903154016455471e-05  5.6542195889836722e-05  5.9135561695628874e-05  6.1667904807432989e-05  6.3816636242388581e-05  6.6417276729160255e-05  6.8583422280387677e-05  7.0112850220668807e-05  7.2082386008114408e-05  7.2995933959582810e-05  7.3820109013437445e-05  7.4566474273139551e-05  7.4935251536817959e-05  7.5113881798173160e-05  7.4368728321652855e-05  7.3849751839725613e-05  7.3033036202861554e-05  7.1242615189627369e-05  7.0059898663035169e-05  6.7586380659787247e-05  6.4513968176756564e-05  6.1619953459796963e-05  5.8314087550029222e-05  5.3799108578748949e-05  4.8826406137913485e-05  4.3160610046071357e-05  3.8192494442791807e-05  3.2641719427370035e-05  3.0134245137674133e-05  8.2965204636855735e-06  9.8276032581238077e-06  1.1169830669824950e-05  1.2104149881411620e-05  1.3422088502672587e-05  1.4140153959402378e-05  1.5385777405808452e-05  1.6132911583211718e-05  1.6848548206250081e-05  1.8120850663984070e-05  1.8936776195734043e-05  1.9880759694266427e-05  2.0761587816111338e-05  2.1774211226917280e-05  2.3196963472607183e-05  2.3920541074311425e-05  2.5323930587043613e-05  2.6336744512661360e-05  2.7090920265860325e-05  2.8672735811206167e-05  2.9291141852329221e-05  3.0837384147237691e-05  3.1253238628292582e-05  3.2402312639951673e-05  3.3797924675069432e-05  3.4032641660570444e-05  3.4851761109425514e-05  3.5909984403060692e-05  3.5529334984144107e-05  3.5671399286529863e-05  3.6384733297893472e-05  3.5788326102306329e-05  3.5204788475318148e-05  3.4607213376526079e-05  3.2293433631829409e-05  3.2095631469032016e-05  2.9494010921988573e-05  2.6791019217764426e-05  2.3495387228327878e-05  1.9427138601893813e-05  1.5146781089363928e-05  9.0832703340167476e-06  3.3772865632633983e-06  -4.7593653472750099e-06  -1.4602872775247824e-05  -2.4140054771090938e-05  -3.7469843162171060e-05  -4.9411896419055344e-05  -6.6087936279546778e-05  -8.5536763245885631e-05  -1.0791246756930996e-04  -1.3710877862387451e-04  -1.6620891856524223e-04  -2.0345686957523725e-04  -2.5233841275065750e-04  -2.9353839615594104e-04  -3.5820953347481354e-04  -4.1721019124730028e-04  -4.8135062129292451e-04  -5.5091548065105468e-04  -6.0649098080100639e-04  -6.5843669422510783e-04  -7.1258207997982584e-04  -7.5076276521814013e-04  -7.7939700091997409e-04  -8.0032976768839735e-04  -8.1617543599111760e-04  -8.2397607288500502e-04  -8.2404991123209215e-04  -8.2146595514045442e-04  -8.1600580085917896e-04  -8.1271481370130867e-04  -7.9957890156359982e-04  -7.8807195828318522e-04  -7.7959172101326683e-04  -7.6851258294449341e-04  -7.5515021216325550e-04  -7.4635056863392240e-04  -7.3316721307837933e-04  -7.2105015112793394e-04  -7.1300452115203639e-04  -7.0051799971732596e-04  -6.9017471937363000e-04  -6.7959527555495273e-04  -6.6966219108287079e-04  -6.6064408577656722e-04  -6.5129579695617236e-04  -6.4206632496957203e-04  -6.3316543804537600e-04  -6.2450249242404152e-04  -6.1683644802422606e-04  -6.0848008260899116e-04  -6.0032327123527539e-04  -5.9214893249680104e-04  -5.8435932687669813e-04  -5.7696785005952294e-04  -5.6953337768137619e-04  -5.6178996504746884e-04  -5.5382809204148579e-04  -5.4631564207769940e-04  -5.3870934499948607e-04  -5.3061352860141783e-04  -5.2293355641799247e-04  -5.1565046180156681e-04  -5.0717261189293374e-04  -4.9980109525563305e-04  -4.9103133294084455e-04  -4.8252207771997508e-04  -4.7457704889964123e-04  -4.6573409808573586e-04  -4.5709634334894746e-04  8.8851388440134709e-06  1.0114020618771105e-05  1.1135528584591088e-05  1.1819444703234081e-05  1.2865478139132521e-05  1.3354820512562445e-05  1.4348070947190938e-05  1.4905506100446525e-05  1.5411656771896842e-05  1.6478568931327600e-05  1.7117957914764277e-05  1.7861381246154964e-05  1.8595253296192805e-05  1.9449431131439898e-05  2.0670605202959735e-05  2.1230271070204733e-05  2.2439136636565624e-05  2.3400433441796980e-05  2.3973739858046873e-05  2.5371819364904093e-05  2.5863265231677258e-05  2.7306983927666433e-05  2.7632493478032227e-05  2.8571879004397252e-05  2.9913611733849062e-05  2.9955895581030821e-05  3.0655958773700844e-05  3.1718779007192172e-05  3.1221023072981729e-05  3.1316784568722831e-05  3.2030787076530426e-05  3.1278005366505825e-05  3.0742253794288873e-05  3.0155909260031276e-05  2.7712430317388891e-05  2.7697084712470971e-05  2.5098274840544711e-05  2.2385213448428376e-05  1.9233170080662360e-05  1.5384281690310848e-05  1.0964287592597505e-05  5.1373037657472312e-06  -2.7256407806243810e-07  -8.2738322855683197e-06  -1.7881677034694018e-05  -2.7133727383666560e-05  -4.0099871183208632e-05  -5.1985679953552011e-05  -6.7858046774952618e-05  -8.6750698925281713e-05  -1.0848331187258043e-04  -1.3638661240586910e-04  -1.6526735374054280e-04  -2.0042523658189224e-04  -2.4647508018065092e-04  -2.8701224360331711e-04  -3.4851592160961293e-04  -4.0588292729822132e-04  -4.6710229094836095e-04  -5.3606014133985561e-04  -5.9178253411366715e-04  -6.4387292024873245e-04  -6.9924929664037317e-04  -7.4017856274054793e-04  -7.7057893116359985e-04  -7.9475634663250946e-04  -8.1300281496791732e-04  -8.2379967524263248e-04  -8.2612402356691298e-04  -8.2626731441239260e-04  -8.2269584863994827e-04  -8.2144468019095158e-04  -8.0957505888537258e-04  -7.9935760071618480e-04  -7.9182821583413145e-04  -7.8164057042837446e-04  -7.6868914722201152e-04  -7.6034661424221695e-04  -7.4744438913211606e-04  -7.3545379847500460e-04  -7.2735697290352995e-04  -7.1464791275399815e-04  -7.0409640224418618e-04  -6.9329581055903690e-04  -6.8269580336374487e-04  -6.7318192214414437e-04  -6.6310819721997606e-04  -6.5313339884210406e-04  -6.4347555401494461e-04  -6.3376502077895495e-04  -6.2519235178129127e-04  -6.1580372652911839e-04  -6.0657500959736407e-04  -5.9736422605104124e-04  -5.8826330151101462e-04  -5.7980324149620112e-04  -5.7121118493420637e-04  -5.6201108062796802e-04  -5.5285319036277997e-04  -5.4392248301131276e-04  -5.3483359589548147e-04  -5.2526453041070538e-04  -5.1619983013520977e-04  -5.0747366869329132e-04  -4.9757004180077803e-04  -4.8880350887799476e-04  -4.7845692381767366e-04  -4.6869742462584340e-04  -4.5893799114712474e-04  -4.4875701918513697e-04  -4.3843524635024509e-04  -2.3647298606537484e-02  -1.3007280297999559e-02  -7.9970142451764870e-03  -5.3972818273935221e-03  -4.0284000342964647e-03  -3.1344814589623930e-03  -2.5259569784808152e-03  -2.1448092421078270e-03  -1.8582628610988271e-03  -1.6531304871858438e-03  -1.4993788139356814e-03  -1.3667156794734013e-03  -1.2683992789547392e-03  -1.1811444411350754e-03  -1.1143931624957868e-03  -1.0532376987144041e-03  -1.0049056121538443e-03  -9.6375338092943613e-04  -9.2477631611480717e-04  -8.9052930199345545e-04  -8.6270416920743739e-04  -8.3281542762630762e-04  -8.1043544420864640e-04  -7.8993753418015648e-04  -7.6847815803846552e-04  -7.4932509502727263e-04  -7.3200758718760671e-04  -7.1632957553802471e-04  -7.0180515957167879e-04  -6.8709015715807075e-04  -6.7393265439701945e-04  -6.6071564873784391e-04  -6.4854096227230911e-04  -6.3684012872652104e-04  -6.2603695853775954e-04  -6.1517242986335941e-04  -6.0430604339944700e-04  -5.9362626531715202e-04  -5.8343628173649514e-04  -5.7375592932825510e-04  -5.6379649444473871e-04  -5.5376803780318837e-04  -5.4422082127785940e-04  -5.3450221358216060e-04  -5.2490177131324356e-04  -5.1470909013193156e-04  -5.0458242390612098e-04  -4.9465270934759633e-04  -4.8442713184330597e-04  -4.7390291979746649e-04  -4.6329684764125127e-04  -4.5282857430565258e-04  -4.4126311925592681e-04  -4.3046628078450319e-04  -4.1845137222902253e-04  -2.0023682003699229e-04  -3.6159888085903777e-05  -4.3003437462895523e-04  -5.682686