<?xml version="1.0"?>
<VTKFile type="UnstructuredGrid"  version="0.1"  >
<UnstructuredGrid>
<Piece  NumberOfPoints="15540" NumberOfCells="30546">
<Points>
<DataArray  type="Float64"  NumberOfComponents="3"  format="ascii">0 0 0  -0.5 -0.5 0  0.5 -0.5 0  0.5 0 0  0.5 0.5 0  -0.5 0.5 0  -0.5 0.0001 0  -0.5 -0.0001 0  0.5 0.1 0  0.5 -0.1 0  -0.5 -0.1 0  -0.5 0.1 0  -0.4900000000000277 -0.5 0  -0.4800000000000555 -0.5 0  -0.4700000000000832 -0.5 0  -0.4600000000001109 -0.5 0  -0.4500000000001387 -0.5 0  -0.4400000000001664 -0.5 0  -0.4300000000001942 -0.5 0  -0.4200000000002219 -0.5 0  -0.4100000000002497 -0.5 0  -0.4000000000002774 -0.5 0  -0.3900000000003052 -0.5 0  -0.3800000000003328 -0.5 0  -0.3700000000003606 -0.5 0  -0.3600000000003883 -0.5 0  -0.3500000000004161 -0.5 0  -0.3400000000004438 -0.5 0  -0.3300000000004716 -0.5 0  -0.3200000000004993 -0.5 0  -0.3100000000005271 -0.5 0  -0.3000000000005548 -0.5 0  -0.2900000000005825 -0.5 0  -0.2800000000006103 -0.5 0  -0.2700000000006381 -0.5 0  -0.2600000000006658 -0.5 0  -0.2500000000006935 -0.5 0  -0.2400000000007212 -0.5 0  -0.230000000000749 -0.5 0  -0.2200000000007767 -0.5 0  -0.2100000000008044 -0.5 0  -0.2000000000008322 -0.5 0  -0.19000000000086 -0.5 0  -0.1800000000008877 -0.5 0  -0.1700000000009154 -0.5 0  -0.1600000000009431 -0.5 0  -0.1500000000009709 -0.5 0  -0.1400000000009986 -0.5 0  -0.1300000000010264 -0.5 0  -0.1200000000010541 -0.5 0  -0.1100000000010818 -0.5 0  -0.1000000000011096 -0.5 0  -0.09000000000113734 -0.5 0  -0.08000000000116503 -0.5 0  -0.07000000000119283 -0.5 0  -0.06000000000122058 -0.5 0  -0.05000000000124827 -0.5 0  -0.04000000000127607 -0.5 0  -0.03000000000130376 -0.5 0  -0.02000000000133151 -0.5 0  -0.01000000000135925 -0.5 0  -1.376121439022882e-12 -0.5 0  0.009999999998640763 -0.5 0  0.01999999999866864 -0.5 0  0.02999999999869629 -0.5 0  0.03999999999872406 -0.5 0  0.04999999999875182 -0.5 0  0.05999999999877947 -0.5 0  0.06999999999880724 -0.5 0  0.079999999998835 -0.5 0  0.08999999999886266 -0.5 0  0.09999999999889042 -0.5 0  0.1099999999989182 -0.5 0  0.1199999999989459 -0.5 0  0.1299999999989737 -0.5 0  0.1399999999990014 -0.5 0  0.1499999999990291 -0.5 0  0.1599999999990568 -0.5 0  0.1699999999990847 -0.5 0  0.1799999999991124 -0.5 0  0.1899999999991401 -0.5 0  0.1999999999991678 -0.5 0  0.2099999999991955 -0.5 0  0.2199999999992234 -0.5 0  0.2299999999992511 -0.5 0  0.2399999999992788 -0.5 0  0.2499999999993066 -0.5 0  0.2599999999993342 -0.5 0  0.269999999999362 -0.5 0  0.2799999999993897 -0.5 0  0.2899999999994175 -0.5 0  0.2999999999994452 -0.5 0  0.3099999999994729 -0.5 0  0.3199999999995007 -0.5 0  0.3299999999995284 -0.5 0  0.3399999999995562 -0.5 0  0.3499999999995839 -0.5 0  0.3599999999996116 -0.5 0  0.3699999999996393 -0.5 0  0.379999999999667 -0.5 0  0.3899999999996949 -0.5 0  0.3999999999997226 -0.5 0  0.4099999999997503 -0.5 0  0.419999999999778 -0.5 0  0.4299999999998058 -0.5 0  0.4399999999998336 -0.5 0  0.4499999999998613 -0.5 0  0.4599999999998891 -0.5 0  0.4699999999999167 -0.5 0  0.4799999999999445 -0.5 0  0.4899999999999722 -0.5 0  0.5 -0.4902110204681464 0  0.5 -0.4804459958734807 0  0.5 -0.4707048677450883 0  0.5 -0.4609875815766065 0  0.5 -0.4512940759251849 0  0.5 -0.4416242912883993 0  0.5 -0.4319781678689807 0  0.5 -0.4223556545383647 0  0.5 -0.4127566896324213 0  0.5 -0.4031812128200121 0  0.5 -0.3936291733057916 0  0.5 -0.3841005081172659 0  0.5 -0.3745951585781932 0  0.5 -0.3651130778999337 0  0.5 -0.3556541993788045 0  0.5 -0.3462184677228392 0  0.5 -0.3368058273705318 0  0.5 -0.3274162224888609 0  0.5 -0.3180495969712945 0  0.5 -0.3087058944357755 0  0.5 -0.299385058222682 0  0.5 -0.2900870313927414 0  0.5 -0.2808117567250807 0  0.5 -0.2715591844628491 0  0.5 -0.2623292564012653 0  0.5 -0.253121909553727 0  0.5 -0.2439371050851549 0  0.5 -0.2347747685524501 0  0.5 -0.2256348634421331 0  0.5 -0.2165173209784076 0  0.5 -0.207422087829958 0  0.5 -0.1983491207029381 0  0.5 -0.1892983550950482 0  0.5 -0.1802697378305253 0  0.5 -0.1712632154965152 0  0.5 -0.1622787344187354 0  0.5 -0.1533162406595534 0  0.5 -0.1443756800160514 0  0.5 -0.1354569980180493 0  0.5 -0.1265601399261414 0  0.5 -0.1176850622761093 0  0.5 -0.1088317009011999 0  0.5 -0.09166666666668973 0  0.5 -0.08333333333337943 0  0.5 -0.07500000000006915 0  0.5 -0.06666666666675886 0  0.5 -0.05833333333344858 0  0.5 -0.05000000000013693 0  0.5 -0.04166666666678191 0  0.5 -0.03333333333342643 0  0.5 -0.02500000000006916 0  0.5 -0.01666666666671188 0  0.5 -0.00833333333335548 0  0.5 0.008333333333318314 0  0.5 0.01666666666663358 0  0.5 0.02499999999994162 0  0.5 0.03333333333325101 0  0.5 0.04166666666655769 0  0.5 0.04999999999986843 0  0.5 0.05833333333322258 0  0.5 0.06666666666657715 0  0.5 0.07499999999993352 0  0.5 0.08333333333328992 0  0.5 0.09166666666664541 0  0.5 0.1088317009011616 0  0.5 0.1176850622760307 0  0.5 0.1265601399260203 0  0.5 0.1354569980178909 0  0.5 0.1443756800158549 0  0.5 0.153316240659315 0  0.5 0.1622787344184454 0  0.5 0.1712632154961752 0  0.5 0.1802697378301332 0  0.5 0.1892983550946039 0  0.5 0.1983491207024433 0  0.5 0.2074220878294123 0  0.5 0.216517320977811 0  0.5 0.2256348634414833 0  0.5 0.2347747685517479 0  0.5 0.2439371050844009 0  0.5 0.2531219095529224 0  0.5 0.2623292564004089 0  0.5 0.2715591844619371 0  0.5 0.2808117567241139 0  0.5 0.290087031391723 0  0.5 0.2993850582216101 0  0.5 0.3087058944347426 0  0.5 0.3180495969703129 0  0.5 0.3274162224879299 0  0.5 0.3368058273696494 0  0.5 0.3462184677220051 0  0.5 0.3556541993780186 0  0.5 0.3651130778991989 0  0.5 0.3745951585775107 0  0.5 0.3841005081166359 0  0.5 0.3936291733052134 0  0.5 0.4031812128194852 0  0.5 0.412756689631945 0  0.5 0.4223556545379392 0  0.5 0.431978167868607 0  0.5 0.4416242912880781 0  0.5 0.4512940759249164 0  0.5 0.4609875815763912 0  0.5 0.4707048677449264 0  0.5 0.4804459958733726 0  0.5 0.4902110204680924 0  0.4900000000000277 0.5 0  0.4800000000000555 0.5 0  0.4700000000000832 0.5 0  0.4600000000001109 0.5 0  0.4500000000001387 0.5 0  0.4400000000001664 0.5 0  0.4300000000001942 0.5 0  0.4200000000002219 0.5 0  0.4100000000002497 0.5 0  0.4000000000002774 0.5 0  0.3900000000003052 0.5 0  0.3800000000003328 0.5 0  0.3700000000003606 0.5 0  0.3600000000003883 0.5 0  0.3500000000004161 0.5 0  0.3400000000004438 0.5 0  0.3300000000004716 0.5 0  0.3200000000004993 0.5 0  0.3100000000005271 0.5 0  0.3000000000005548 0.5 0  0.2900000000005825 0.5 0  0.2800000000006103 0.5 0  0.2700000000006381 0.5 0  0.2600000000006658 0.5 0  0.2500000000006935 0.5 0  0.2400000000007212 0.5 0  0.230000000000749 0.5 0  0.2200000000007767 0.5 0  0.2100000000008044 0.5 0  0.2000000000008322 0.5 0  0.19000000000086 0.5 0  0.1800000000008877 0.5 0  0.1700000000009154 0.5 0  0.1600000000009431 0.5 0  0.1500000000009709 0.5 0  0.1400000000009986 0.5 0  0.1300000000010264 0.5 0  0.1200000000010541 0.5 0  0.1100000000010818 0.5 0  0.1000000000011096 0.5 0  0.09000000000113734 0.5 0  0.08000000000116503 0.5 0  0.07000000000119283 0.5 0  0.06000000000122058 0.5 0  0.05000000000124827 0.5 0  0.04000000000127607 0.5 0  0.03000000000130376 0.5 0  0.02000000000133151 0.5 0  0.01000000000135925 0.5 0  1.376121439022882e-12 0.5 0  -0.009999999998640763 0.5 0  -0.01999999999866864 0.5 0  -0.02999999999869629 0.5 0  -0.03999999999872406 0.5 0  -0.04999999999875182 0.5 0  -0.05999999999877947 0.5 0  -0.06999999999880724 0.5 0  -0.079999999998835 0.5 0  -0.08999999999886266 0.5 0  -0.09999999999889042 0.5 0  -0.1099999999989182 0.5 0  -0.1199999999989459 0.5 0  -0.1299999999989737 0.5 0  -0.1399999999990014 0.5 0  -0.1499999999990291 0.5 0  -0.1599999999990568 0.5 0  -0.1699999999990847 0.5 0  -0.1799999999991124 0.5 0  -0.1899999999991401 0.5 0  -0.1999999999991678 0.5 0  -0.2099999999991955 0.5 0  -0.2199999999992234 0.5 0  -0.2299999999992511 0.5 0  -0.2399999999992788 0.5 0  -0.2499999999993066 0.5 0  -0.2599999999993342 0.5 0  -0.269999999999362 0.5 0  -0.2799999999993897 0.5 0  -0.2899999999994175 0.5 0  -0.2999999999994452 0.5 0  -0.3099999999994729 0.5 0  -0.3199999999995007 0.5 0  -0.3299999999995284 0.5 0  -0.3399999999995562 0.5 0  -0.3499999999995839 0.5 0  -0.3599999999996116 0.5 0  -0.3699999999996393 0.5 0  -0.379999999999667 0.5 0  -0.3899999999996949 0.5 0  -0.3999999999997226 0.5 0  -0.4099999999997503 0.5 0  -0.419999999999778 0.5 0  -0.4299999999998058 0.5 0  -0.4399999999998336 0.5 0  -0.4499999999998613 0.5 0  -0.4599999999998891 0.5 0  -0.4699999999999167 0.5 0  -0.4799999999999445 0.5 0  -0.4899999999999722 0.5 0  -0.5 0.4902110204681464 0  -0.5 0.4804459958734807 0  -0.5 0.4707048677450883 0  -0.5 0.4609875815766065 0  -0.5 0.4512940759251849 0  -0.5 0.4416242912883993 0  -0.5 0.4319781678689807 0  -0.5 0.4223556545383647 0  -0.5 0.4127566896324213 0  -0.5 0.4031812128200121 0  -0.5 0.3936291733057916 0  -0.5 0.3841005081172659 0  -0.5 0.3745951585781932 0  -0.5 0.3651130778999337 0  -0.5 0.3556541993788045 0  -0.5 0.3462184677228392 0  -0.5 0.3368058273705318 0  -0.5 0.3274162224888609 0  -0.5 0.3180495969712945 0  -0.5 0.3087058944357755 0  -0.5 0.299385058222682 0  -0.5 0.2900870313927414 0  -0.5 0.2808117567250807 0  -0.5 0.2715591844628491 0  -0.5 0.2623292564012653 0  -0.5 0.253121909553727 0  -0.5 0.2439371050851549 0  -0.5 0.2347747685524501 0  -0.5 0.2256348634421331 0  -0.5 0.2165173209784076 0  -0.5 0.207422087829958 0  -0.5 0.1983491207029381 0  -0.5 0.1892983550950482 0  -0.5 0.1802697378305253 0  -0.5 0.1712632154965152 0  -0.5 0.1622787344187354 0  -0.5 0.1533162406595534 0  -0.5 0.1443756800160514 0  -0.5 0.1354569980180493 0  -0.5 0.1265601399261414 0  -0.5 0.1176850622761093 0  -0.5 0.1088317009011999 0  -0.5 0.09167500000001694 0  -0.5 0.08335000000003931 0  -0.5 0.07502500000006167 0  -0.5 0.06670000000008947 0  -0.5 0.05837500000011001 0  -0.5 0.0500500000001328 0  -0.5 0.0417250000001127 0  -0.5 0.03340000000008944 0  -0.5 0.02507500000006573 0  -0.5 0.01675000000004653 0  -0.5 0.008425000000027341 
[...]
<PointData  Scalars="f_40"> 
<DataArray  type="Float64"  Name="f_40"  format="ascii">-2.6968438911471129e-02  3.9618318445718030e-05  -2.3890046723278654e-03  -4.0880196587335155e-04  3.0300000000000000e+02  3.0300000000000000e+02  -1.8866886177724106e-07  -1.8134213771461240e-07  -4.4929682163794514e-04  -4.3020684109672404e-04  7.7755376622396569e-06  6.9835323331534015e-06  4.4840516082110475e-05  4.7353903122909131e-05  4.8479497201003027e-05  4.7284608410783427e-05  4.5228436792436470e-05  4.2425440085826994e-05  3.9177837166306304e-05  3.4133320094866581e-05  2.9822512813349375e-05  2.4586197060560742e-05  1.9639322069127210e-05  1.3984025204390404e-05  7.7233469810284962e-06  2.3151850935222368e-06  -2.8272060594460597e-06  -9.2463133132460980e-06  -1.5209908389990271e-05  -2.2632152417478821e-05  -2.9036743809333066e-05  -3.6511602444072428e-05  -4.3894948025837178e-05  -5.0999194886824605e-05  -5.8812171523857596e-05  -6.6494729581916803e-05  -7.4955001922034434e-05  -8.2225432162118110e-05  -9.0739153177460285e-05  -1.0112990464426119e-04  -1.1012643221665860e-04  -1.1953958693764929e-04  -1.2928352412374733e-04  -1.3851344171473932e-04  -1.4917242390739135e-04  -1.5994793896736034e-04  -1.7160583470319428e-04  -1.8255362667918813e-04  -1.9359037966896700e-04  -2.0545833560026085e-04  -2.1772949366193151e-04  -2.2988825145026166e-04  -2.4266247329004362e-04  -2.5594424597036335e-04  -2.6862009861169456e-04  -2.8227341680926130e-04  -2.9523313222981038e-04  -3.1062939099577323e-04  -3.2315444774270882e-04  -3.3734055968868764e-04  -3.5081512483830341e-04  -3.6486171320465751e-04  -3.7883342136451492e-04  -3.9131253809189753e-04  -4.0617551037408847e-04  -4.2158275049546638e-04  -4.3456586759187734e-04  -4.4762443849679512e-04  -4.6145818332699750e-04  -4.7350401863384222e-04  -4.8753738832948756e-04  -4.9998918248889677e-04  -5.1378504397691640e-04  -5.2776851250739716e-04  -5.3882746234252318e-04  -5.5132159375035825e-04  -5.6305971887990632e-04  -5.7494912469718937e-04  -5.8840277656538569e-04  -5.9909956205561133e-04  -6.1073257499343536e-04  -6.2200951359967773e-04  -6.3361948449162367e-04  -6.4652316031897097e-04  -6.5835509629711580e-04  -6.6768370068812674e-04  -6.7904616006449095e-04  -6.8987692772486575e-04  -7.0092369414396431e-04  -7.1279162292480196e-04  -7.2612014968975486e-04  -7.3723308232545484e-04  -7.5194666246950403e-04  -7.6495127956356711e-04  -7.7916206063643057e-04  -7.9237922091704763e-04  -8.0903581786091045e-04  -8.2699611372566808e-04  -8.4615611860025660e-04  -8.7109785050469178e-04  -8.9368187901161459e-04  -9.1916866123413108e-04  -9.5490864549526680e-04  -9.9740485710988038e-04  -1.0389578916543893e-03  -1.0967649817325597e-03  -1.1767789844036858e-03  -1.2852573559792582e-03  -1.4223141309779310e-03  -1.5984576657913599e-03  -1.9174409361318733e-03  -1.6931453439755638e-03  -1.2018313860313336e-03  -9.7499145839997166e-04  -8.5693282245008062e-04  -7.8199680218890284e-04  -7.3233180278153983e-04  -7.0069349625361010e-04  -6.7814594900661906e-04  -6.5904945416883122e-04  -6.4586465449535321e-04  -6.3237353974867304e-04  -6.2352488433375225e-04  -6.1327168700689189e-04  -6.0654247030080552e-04  -5.9858135768824203e-04  -5.9249661127726684e-04  -5.8590380686442784e-04  -5.8003620397413253e-04  -5.7417241245962306e-04  -5.6788319574319047e-04  -5.6200136340615978e-04  -5.5629229479212561e-04  -5.5019315724695703e-04  -5.4372731192478248e-04  -5.3728354374603436e-04  -5.3063990601888195e-04  -5.2472973474100917e-04  -5.1897306836297017e-04  -5.1209658303513457e-04  -5.0556608546865997e-04  -4.9868657467862340e-04  -4.9243221223605610e-04  -4.8549639429034275e-04  -4.7975961099225040e-04  -4.7358267392345947e-04  -4.6754363162181584e-04  -4.6096490230377305e-04  -4.5545870983786682e-04  -4.4934755948591192e-04  -4.4460072113398881e-04  -4.3941793416997548e-04  -4.3459573602943653e-04  -4.2576574604126011e-04  -4.2275226195415897e-04  -4.1910413327361302e-04  -4.1655324875224326e-04  -4.1478373140514473e-04  -4.1124861935329924e-04  -4.0986547044564032e-04  -4.0896507431807520e-04  -4.0855448199817731e-04  -4.0785530238914084e-04  -4.0796571685193023e-04  -4.0950741111211270e-04  -4.1121553189831726e-04  -4.1279710463426806e-04  -4.1509805249481489e-04  -4.1846272913817289e-04  -4.2120397304424391e-04  -4.2451061445644212e-04  -4.2936103995943475e-04  -4.3408045172428828e-04  -4.3801091609989518e-04  -4.4338743622531564e-04  -4.5588001354286651e-04  -4.6274846037588972e-04  -4.6986784688478025e-04  -4.7636516753293053e-04  -4.8491546217825795e-04  -4.9238336443965054e-04  -5.0141271500942441e-04  -5.0950311420133135e-04  -5.1835873507137900e-04  -5.2622237365607561e-04  -5.3566329934781349e-04  -5.4411840797380742e-04  -5.5359721946916416e-04  -5.6283344540027677e-04  -5.7163708641753909e-04  -5.8016805342417333e-04  -5.8852302877074358e-04  -5.9735482173415828e-04  -6.0594560266321554e-04  -6.1457319775431248e-04  -6.2313331988242567e-04  -6.3014064374620343e-04  -6.3814828905783458e-04  -6.4473652048302292e-04  -6.5233857854047738e-04  -6.5932265942400981e-04  -6.6555798812487489e-04  -6.7085967250787078e-04  -6.7728863776750456e-04  -6.8178891454126012e-04  -6.8747860852956609e-04  -6.9176436608345162e-04  -6.9641316912129379e-04  -7.0022460785760588e-04  -7.0331987934340418e-04  -7.0727235897111119e-04  -7.0898824994667991e-04  -7.5006177444140640e-04  1.8926644038758829e-03  -1.2418493370615744e-01  7.5867545674169534e-02  -1.3806460098764994e+00  3.0300000000000000e+02  3.0300000000000000e+02  3.0300000000000000e+02  3.0300000000000000e+02  3.0300000000000000e+02  3.0300000000000000e+02  3.0300000000000000e+02  3.0300000000000000e+02  3.0300000000000000e+02  3.0300000000000000e+02  3.0300000000000000e+02  3.0300000000000000e+02  3.0300000000000000e+02  3.0300000000000000e+02  3.0300000000000000e+02  3.0300000000000000e+02  3.0300000000000000e+02  3.0300000000000000e+02  3.0300000000000000e+02  3.0300000000000000e+02  3.0300000000000000e+02  3.0300000000000000e+02  3.0300000000000000e+02  3.0300000000000000e+02  3.0300000000000000e+02  3.0300000000000000e+02  3.0300000000000000e+02  3.0300000000000000e+02  3.0300000000000000e+02  3.0300000000000000e+02  3.0300000000000000e+02  3.0300000000000000e+02  3.0300000000000000e+02  3.0300000000000000e+02  3.0300000000000000e+02  3.0300000000000000e+02  3.0300000000000000e+02  3.0300000000000000e+02  3.0300000000000000e+02  3.0300000000000000e+02  3.0300000000000000e+02  3.0300000000000000e+02  3.0300000000000000e+02  3.0300000000000000e+02  3.0300000000000000e+02  3.0300000000000000e+02  3.0300000000000000e+02  3.0300000000000000e+02  3.0300000000000000e+02  3.0300000000000000e+02  3.0300000000000000e+02  3.0300000000000000e+02  3.0300000000000000e+02  3.0300000000000000e+02  3.0300000000000000e+02  3.0300000000000000e+02  3.0300000000000000e+02  3.0300000000000000e+02  3.0300000000000000e+02  3.0300000000000000e+02  3.0300000000000000e+02  3.0300000000000000e+02  3.0300000000000000e+02  3.0300000000000000e+02  3.0300000000000000e+02  3.0300000000000000e+02  3.0300000000000000e+02  3.0300000000000000e+02  3.0300000000000000e+02  3.0300000000000000e+02  3.0300000000000000e+02  3.0300000000000000e+02  3.0300000000000000e+02  3.0300000000000000e+02  3.0300000000000000e+02  3.0300000000000000e+02  3.0300000000000000e+02  3.0300000000000000e+02  3.0300000000000000e+02  3.0300000000000000e+02  3.0300000000000000e+02  3.0300000000000000e+02  3.0300000000000000e+02  3.0300000000000000e+02  3.0300000000000000e+02  3.0300000000000000e+02  3.0300000000000000e+02  3.0300000000000000e+02  3.0300000000000000e+02  3.0300000000000000e+02  3.0300000000000000e+02  3.0300000000000000e+02  3.0300000000000000e+02  3.0300000000000000e+02  3.0300000000000000e+02  3.0300000000000000e+02  3.0300000000000000e+02  3.0300000000000000e+02  3.0300000000000000e+02  -8.9929772103622141e-01  8.8397048119654362e-02  -8.4529593807241343e-02  1.6632858488117184e-03  9.1570185138911721e-05  1.1192308576585250e-04  1.1133020145846737e-04  1.1010321920062243e-04  1.0851887153349179e-04  1.0734919556107149e-04  1.0615962341398683e-04  1.0402820364685310e-04  1.0197531402661276e-04  1.0044083239173194e-04  9.7695822856137861e-05  9.6019685470722491e-05  9.3617710854395768e-05  9.0807453774327412e-05  8.8297028345830767e-05  8.5324304473101664e-05  8.3094005367741639e-05  7.9276416221117621e-05  7.6456405253204164e-05  7.3083048665849214e-05  6.9209659063183688e-05  6.5999080727465216e-05  6.2659609453884506e-05  5.9409854434860131e-05  5.4861676047869557e-05  5.1557292716161254e-05  4.6697492761852817e-05  4.3546195613462073e-05  4.0329567973951873e-05  3.5653319380875376e-05  3.2307472838411946e-05  2.8647608416700052e-05  2.4960852808144129e-05  2.1172408094212818e-05  1.7804904769455545e-05  1.4878651829095124e-05  1.1991943376430390e-05  9.4833835539888242e-06  4.8535251110578391e-06  3.2788899772926444e-06  1.8271421881305555e-06  9.4941239655354698e-07  2.2206743474957157e-07  -4.1274535609016923e-07  -5.2174124076277330e-07  -5.1103234183216663e-07  -3.9745690023385472e-07  -3.1171322921764362e-07  -2.0977941630603037e-07  -5.1633919349538681e-07  -1.1564652714720483e-06  -1.5118659526840014e-06  -1.6439229939684330e-06  -1.0843411769633443e-06  -6.4807914142725064e-08  1.4307359746673404e-06  2.7504665776823206e-06  5.2105438875946603e-06  8.8815298235401841e-06  1.2085127818876218e-05  1.5411417329976866e-05  2.0469756049469131e-05  2.4268605067597133e-05  2.8926424204875701e-05  3.4839922216227845e-05  3.8552421117667728e-05  4.4174543185661829e-05  5.1664414626275695e-05  5.7319141523215115e-05  6.2806296626983984e-05  7.0252661984236515e-05  7.4194875016444733e-05  8.0846689489772993e-05  9.0337045784307687e-05  9.6905161549073308e-05  1.0331817563650854e-04  1.1193336510082447e-04  1.1559193003250188e-04  1.2301285181541164e-04  1.3440084271817664e-04  1.4170651359523472e-04  1.4891767037034025e-04  1.5840643755141737e-04  1.6172901299700765e-04  1.6979081413736412e-04  1.8274679787694742e-04  1.8972757263524141e-04  1.9805729139359425e-04  2.0900099440315025e-04  2.1264163615254770e-04  2.2153646800310959e-04  2.3555113893588493e-04  2.4338501506165509e-04  2.5200875673749549e-04  2.6292747948553541e-04  2.6590798619035530e-04  2.7359993243354674e-04  2.8652597533371720e-04  2.9095846277230400e-04  2.9327337610708540e-04  2.9562610180539664e-04  2.9104900026354947e-04  1.6769638873117412e-04  -7.7659164924821578e-03  -5.4592485170620051e-03  2.4434437320056156e-04  3.0634622537786837e-04  3.0210919457602918e-04  2.9993702039003397e-04  2.9800987956971926e-04  2.9130573390441121e-04  2.7786184695032082e-04  2.6975571473608590e-04  2.6673960757917132e-04  2.5690271828796826e-04  2.4777108101397654e-04  2.3788684027077408e-04  2.2308815522183867e-04  2.1397771839751386e-04  2.1035510243828649e-04  1.9998495886864421e-04  1.9162222383452062e-04  1.8322791410366212e-04  1.7007803201643848e-04  1.6189290624342952e-04  1.5829530740974062e-04  1.4863756252453324e-04  1.4135760642614988e-04  1.3409128962292493e-04  1.2305807305341832e-04  1.1567790701753796e-04  1.1184532189218201e-04  1.0323723827307530e-04  9.6747272618739473e-05  9.0352075397898501e-05  8.1291380645855877e-05  7.4844526753103759e-05  7.0884000251525655e-05  6.3533847917372915e-05  5.7997863163421449e-05  5.2522032056153132e-05  4.5363273792616968e-05  3.9853298821021129e-05  3.6073165148047871e-05  3.0168218554578362e-05  2.5648266733288566e-05  2.1847106767347113e-05  1.6826372608786749e-05  1.3477576522955161e-05  1.0186092374846190e-05  6.4322408010131545e-06  3.7697699947808518e-06  2.2876856667829278e-06  7.3511218167247628e-07  -5.2460778061366190e-07  -1.2834320709210458e-06  -1.2906806650604917e-06  -1.0349624517301370e-06  -4.8188514500629515e-07  -1.9885980274515931e-07  -2.7939892105241115e-07  -3.4180998003472692e-07  -4.0660083189005412e-07  -3.3821890059523774e-07  -1.5747634016734675e-07  5.7582917113263435e-07  1.4092626310618193e-06  2.3868807225206560e-06  3.9275410480565715e-06  5.6005248891335898e-06  1.0337860877616519e-05  1.2781927487567090e-05  1.5822971947973143e-05  1.8730585947078355e-05  2.2004681061638849e-05  2.5585867600645162e-05  2.9133770636511826e-05  3.2613767041794671e-05  3.5573247448723377e-05  3.9833323466626507e-05  4.2810928447227240e-05  4.5481580648954720e-05  4.9674528642039105e-05  5.2413942662058337e-05  5.6050076760838266e-05  5.8638406686967045e-05  6.1173692286728667e-05  6.3334627225763136e-05  6.5946187324768797e-05  6.8122859496000219e-05  6.9673500981096216e-05  7.1666949643455643e-05  7.2601091948923063e-05  7.3466207223544277e-05  7.4242489110454393e-05  7.4656407199024741e-05  7.4874742240041661e-05  7.4184324283254051e-05  7.3726494063954684e-05  7.2956882679671838e-05  7.1250205923766602e-05  7.0129114819973969e-05  6.7742139978480673e-05  6.4773915475393733e-05  6.1981365778955019e-05  5.8783755718619271e-05  5.4414308981206829e-05  4.9616966320531101e-05  4.4168817578043611e-05  3.9438884948280167e-05  3.4274714563452880e-05  3.2506282310449035e-05  8.1821528595806169e-06  9.7238412907132412e-06  1.1075777796311891e-05  1.2022126447666353e-05  1.3348889679897179e-05  1.4079433505202178e-05  1.5334793711554322e-05  1.6092248721037501e-05  1.6820944209072425e-05  1.8103487614892680e-05  1.8930723504766775e-05  1.9889093834469250e-05  2.0782428925645143e-05  2.1808239443018573e-05  2.3247378445531555e-05  2.3988015334332472e-05  2.5412813692286761e-05  2.6443296998867131e-05  2.7217258324970986e-05  2.8830569401580492e-05  2.9477508265857786e-05  3.1048650934735934e-05  3.1506391180363661e-05  3.2695589446151778e-05  3.4132825398646300e-05  3.4422696594947987e-05  3.5299252743447992e-05  3.6417619001395287e-05  3.6120951297502103e-05  3.6334141402130776e-05  3.7140553306686987e-05  3.6659462312666484e-05  3.6174994776032696e-05  3.5718866265646725e-05  3.3551641294677610e-05  3.3501862693050558e-05  3.1103146874073284e-05  2.8606311777918248e-05  2.5544346069108691e-05  2.1787062719839650e-05  1.7757109030090199e-05  1.2059114084508344e-05  6.7629675386434707e-06  -9.6379012356800319e-07  -1.0265982849895045e-05  -1.9170903786286900e-05  -3.1989708888845948e-05  -4.3188494807348402e-05  -5.9068126150392884e-05  -7.7947177957228385e-05  -9.9307540260969171e-05  -1.2775093599986850e-04  -1.5596824182577634e-04  -1.9248281062804858e-04  -2.4114282235777800e-04  -2.8195105051471476e-04  -3.4675698874004224e-04  -4.0655287107244575e-04  -4.7113656953023865e-04  -5.4220313557836570e-04  -5.9910508963816154e-04  -6.5247949524845539e-04  -7.0835352971336432e-04  -7.4809570691596430e-04  -7.7778565146977160e-04  -7.9996578333175496e-04  -8.1653474123810296e-04  -8.2516673348581658e-04  -8.2560606221022254e-04  -8.2337853170198186e-04  -8.1813736019642925e-04  -8.1502127264802989e-04  -8.0188941351076195e-04  -7.9034252738875222e-04  -7.8185288945617005e-04  -7.7071165912825164e-04  -7.5720426864390891e-04  -7.4834803446400253e-04  -7.3500667389166184e-04  -7.2275336571817419e-04  -7.1462801409219196e-04  -7.0199120790441407e-04  -6.9152409247486772e-04  -6.8081715437226834e-04  -6.7075858508695862e-04  -6.6163674546176703e-04  -6.5217693317119664e-04  -6.4284839024984037e-04  -6.3384103043360117e-04  -6.2507838817028839e-04  -6.1732353382945408e-04  -6.0888042694529738e-04  -6.0063236413103471e-04  -5.9237596062517535e-04  -5.8450061215637708e-04  -5.7703400589359554e-04  -5.6952697529284388e-04  -5.6170474892709742e-04  -5.5366791669346938e-04  -5.4608296331442620e-04  -5.3840270463740680e-04  -5.3023258792777661e-04  -5.2248224885855562e-04  -5.1513272978293717e-04  -5.0657959757238670e-04  -4.9914189008204500e-04  -4.9029607404340063e-04  -4.8171351067401278e-04  -4.7369769726738161e-04  -4.6477950759454611e-04  -4.5606616397729846e-04  8.7372677319220489e-06  9.9770899228572933e-06  1.1009076751209638e-05  1.1706383716097336e-05  1.2761597984214724e-05  1.3265067629129069e-05  1.4268552762053319e-05  1.4837248135698536e-05  1.5357832787017967e-05  1.6434815579126873e-05  1.7085722077334147e-05  1.7844164562288344e-05  1.8590205394960436e-05  1.9457071316056342e-05  2.0693377186953647e-05  2.1269621245500544e-05  2.2498457892092654e-05  2.3476041185090667e-05  2.4067011598211454e-05  2.5494380201831546e-05  2.6012929580589148e-05  2.7477600799555676e-05  2.7843254393352525e-05  2.8819465116122147e-05  3.0197036294473621e-05  3.0292903500826581e-05  3.1045339123347132e-05  3.2161154721096550e-05  3.1745490363621170e-05  3.1907944026608022e-05  3.2703972529362945e-05  3.2062009795228450e-05  3.1616498260003037e-05  3.1162120384080909e-05  2.8862122334142676e-05  2.8980963874928322e-05  2.6573203525047721e-05  2.4057002375291797e-05  2.1124578629690687e-05  1.7568581384241936e-05  1.3389124151057104e-05  7.9138012105180262e-06  2.8957526480205351e-06  -4.7019171387933090e-06  -1.3792282191720188e-05  -2.2435336205892588e-05  -3.4884225574802964e-05  -4.6044929137738287e-05  -6.1126162743034581e-05  -7.9416159632033069e-05  -1.0012536343711315e-04  -1.2720038630909542e-04  -1.5513218901436860e-04  -1.8942318007493584e-04  -2.3506611004524039e-04  -2.7507523343258777e-04  -3.3641442942759829e-04  -3.9435116136230886e-04  -4.5575746706347854e-04  -5.2596099045042546e-04  -5.8285713337527870e-04  -6.3624484011723110e-04  -6.9327226467115791e-04  -7.3577831027170641e-04  -7.6726191389295273e-04  -7.9281107600774853e-04  -8.1184536453374472e-04  -8.2362618896302442e-04  -8.2642896147260469e-04  -8.2706624734390762e-04  -8.2382566682963939e-04  -8.2285386363277404e-04  -8.1108606079660943e-04  -8.0091717996041544e-04  -7.9345037514211769e-04  -7.8327449727729956e-04  -7.7022959305042223e-04  -7.6188802645209665e-04  -7.4886998974823149e-04  -7.3678181340619119e-04  -7.2864422624637328e-04  -7.1581501557989248e-04  -7.0516747578207122e-04  -6.9426770476796419e-04  -6.8356148597865354e-04  -6.7396416202489143e-04  -6.6379770388795773e-04  -6.5374629407462465e-04  -6.4399685379759998e-04  -6.3420167439756907e-04  -6.2555183330677906e-04  -6.1609564803442234e-04  -6.0678821203128731e-04  -5.9751545507292147e-04  -5.8833840247578858e-04  -5.7981838727438049e-04  -5.7117319163041294e-04  -5.6190612239177882e-04  -5.5269188224306616e-04  -5.4370473684910441e-04  -5.3455946976745279e-04  -5.2493420778393048e-04  -5.1581762983916684e-04  -5.0704599986331456e-04  -4.9708578423350808e-04  -4.8827542103835331e-04  -4.7787314654984157e-04  -4.6806368506939895e-04  -4.5825967977455802e-04  -4.4802620988831086e-04  -4.3765599402926765e-04  -2.4779610021329838e-02  -1.3613295499552576e-02  -8.3275521133964314e-03  -5.5905061522807595e-03  -4.1557831391108848e-03  -3.2192930601587914e-03  -2.5841948032590280e-03  -2.1883055997091033e-03  -1.8907805126893139e-03  -1.6787592009757742e-03  -1.5199467993242191e-03  -1.3832064201641449e-03  -1.2819665437489264e-03  -1.1924871610479828e-03  -1.1239494739488777e-03  -1.0613817067864253e-03  -1.0119517586010748e-03  -9.6987109886228649e-04  -9.3008586599163700e-04  -8.9518540881713352e-04  -8.6679178233791917e-04  -8.3639077518690816e-04  -8.1361399574224281e-04  -7.9274531827742761e-04  -7.7095341161710520e-04  -7.5150773696294043e-04  -7.3393501715789361e-04  -7.1802774363320817e-04  -7.0329320094020536e-04  -6.8838671955474958e-04  -6.7506082840133820e-04  -6.6168278638802363e-04  -6.4936402167159479e-04  -6.3752968296670995e-04  -6.2660244582430713e-04  -6.1562019391686563e-04  -6.0464330780737028e-04  -5.9385735752847399e-04  -5.8356849652325753e-04  -5.7379655998526541e-04  -5.6374646418365902e-04  -5.5362894160322618e-04  -5.4399933295621586e-04  -5.3419814143846787e-04  -5.2451858830452963e-04  -5.1424262849802222e-04  -5.0403441808629442e-04  -4.9402754026736998e-04  -4.8372113050483724e-04  -4.7311671055001280e-04  -4.6242851477299623e-04  -4.5188022689955919e-04  -4.4022746782998922e-04  -4.2934754106521608e-04  -4.1724183542579506e-04  -1.9775200496355421e-04  -3.5108325163447244e-05  -4.2797270333910597e-04  -5.6790094