<?xml version="1.0"?>
<VTKFile type="UnstructuredGrid"  version="0.1"  >
<UnstructuredGrid>
<Piece  NumberOfPoints="15540" NumberOfCells="30546">
<Points>
<DataArray  type="Float64"  NumberOfComponents="3"  format="ascii">0 0 0  -0.5 -0.5 0  0.5 -0.5 0  0.5 0 0  0.5 0.5 0  -0.5 0.5 0  -0.5 0.0001 0  -0.5 -0.0001 0  0.5 0.1 0  0.5 -0.1 0  -0.5 -0.1 0  -0.5 0.1 0  -0.4900000000000277 -0.5 0  -0.4800000000000555 -0.5 0  -0.4700000000000832 -0.5 0  -0.4600000000001109 -0.5 0  -0.4500000000001387 -0.5 0  -0.4400000000001664 -0.5 0  -0.4300000000001942 -0.5 0  -0.4200000000002219 -0.5 0  -0.4100000000002497 -0.5 0  -0.4000000000002774 -0.5 0  -0.3900000000003052 -0.5 0  -0.3800000000003328 -0.5 0  -0.3700000000003606 -0.5 0  -0.3600000000003883 -0.5 0  -0.3500000000004161 -0.5 0  -0.3400000000004438 -0.5 0  -0.3300000000004716 -0.5 0  -0.3200000000004993 -0.5 0  -0.3100000000005271 -0.5 0  -0.3000000000005548 -0.5 0  -0.2900000000005825 -0.5 0  -0.2800000000006103 -0.5 0  -0.2700000000006381 -0.5 0  -0.2600000000006658 -0.5 0  -0.2500000000006935 -0.5 0  -0.2400000000007212 -0.5 0  -0.230000000000749 -0.5 0  -0.2200000000007767 -0.5 0  -0.2100000000008044 -0.5 0  -0.2000000000008322 -0.5 0  -0.19000000000086 -0.5 0  -0.1800000000008877 -0.5 0  -0.1700000000009154 -0.5 0  -0.1600000000009431 -0.5 0  -0.1500000000009709 -0.5 0  -0.1400000000009986 -0.5 0  -0.1300000000010264 -0.5 0  -0.1200000000010541 -0.5 0  -0.1100000000010818 -0.5 0  -0.1000000000011096 -0.5 0  -0.09000000000113734 -0.5 0  -0.08000000000116503 -0.5 0  -0.07000000000119283 -0.5 0  -0.06000000000122058 -0.5 0  -0.05000000000124827 -0.5 0  -0.04000000000127607 -0.5 0  -0.03000000000130376 -0.5 0  -0.02000000000133151 -0.5 0  -0.01000000000135925 -0.5 0  -1.376121439022882e-12 -0.5 0  0.009999999998640763 -0.5 0  0.01999999999866864 -0.5 0  0.02999999999869629 -0.5 0  0.03999999999872406 -0.5 0  0.04999999999875182 -0.5 0  0.05999999999877947 -0.5 0  0.06999999999880724 -0.5 0  0.079999999998835 -0.5 0  0.08999999999886266 -0.5 0  0.09999999999889042 -0.5 0  0.1099999999989182 -0.5 0  0.1199999999989459 -0.5 0  0.1299999999989737 -0.5 0  0.1399999999990014 -0.5 0  0.1499999999990291 -0.5 0  0.1599999999990568 -0.5 0  0.1699999999990847 -0.5 0  0.1799999999991124 -0.5 0  0.1899999999991401 -0.5 0  0.1999999999991678 -0.5 0  0.2099999999991955 -0.5 0  0.2199999999992234 -0.5 0  0.2299999999992511 -0.5 0  0.2399999999992788 -0.5 0  0.2499999999993066 -0.5 0  0.2599999999993342 -0.5 0  0.269999999999362 -0.5 0  0.2799999999993897 -0.5 0  0.2899999999994175 -0.5 0  0.2999999999994452 -0.5 0  0.3099999999994729 -0.5 0  0.3199999999995007 -0.5 0  0.3299999999995284 -0.5 0  0.3399999999995562 -0.5 0  0.3499999999995839 -0.5 0  0.3599999999996116 -0.5 0  0.3699999999996393 -0.5 0  0.379999999999667 -0.5 0  0.3899999999996949 -0.5 0  0.3999999999997226 -0.5 0  0.4099999999997503 -0.5 0  0.419999999999778 -0.5 0  0.4299999999998058 -0.5 0  0.4399999999998336 -0.5 0  0.4499999999998613 -0.5 0  0.4599999999998891 -0.5 0  0.4699999999999167 -0.5 0  0.4799999999999445 -0.5 0  0.4899999999999722 -0.5 0  0.5 -0.4902110204681464 0  0.5 -0.4804459958734807 0  0.5 -0.4707048677450883 0  0.5 -0.4609875815766065 0  0.5 -0.4512940759251849 0  0.5 -0.4416242912883993 0  0.5 -0.4319781678689807 0  0.5 -0.4223556545383647 0  0.5 -0.4127566896324213 0  0.5 -0.4031812128200121 0  0.5 -0.3936291733057916 0  0.5 -0.3841005081172659 0  0.5 -0.3745951585781932 0  0.5 -0.3651130778999337 0  0.5 -0.3556541993788045 0  0.5 -0.3462184677228392 0  0.5 -0.3368058273705318 0  0.5 -0.3274162224888609 0  0.5 -0.3180495969712945 0  0.5 -0.3087058944357755 0  0.5 -0.299385058222682 0  0.5 -0.2900870313927414 0  0.5 -0.2808117567250807 0  0.5 -0.2715591844628491 0  0.5 -0.2623292564012653 0  0.5 -0.253121909553727 0  0.5 -0.2439371050851549 0  0.5 -0.2347747685524501 0  0.5 -0.2256348634421331 0  0.5 -0.2165173209784076 0  0.5 -0.207422087829958 0  0.5 -0.1983491207029381 0  0.5 -0.1892983550950482 0  0.5 -0.1802697378305253 0  0.5 -0.1712632154965152 0  0.5 -0.1622787344187354 0  0.5 -0.1533162406595534 0  0.5 -0.1443756800160514 0  0.5 -0.1354569980180493 0  0.5 -0.1265601399261414 0  0.5 -0.1176850622761093 0  0.5 -0.1088317009011999 0  0.5 -0.09166666666668973 0  0.5 -0.08333333333337943 0  0.5 -0.07500000000006915 0  0.5 -0.06666666666675886 0  0.5 -0.05833333333344858 0  0.5 -0.05000000000013693 0  0.5 -0.04166666666678191 0  0.5 -0.03333333333342643 0  0.5 -0.02500000000006916 0  0.5 -0.01666666666671188 0  0.5 -0.00833333333335548 0  0.5 0.008333333333318314 0  0.5 0.01666666666663358 0  0.5 0.02499999999994162 0  0.5 0.03333333333325101 0  0.5 0.04166666666655769 0  0.5 0.04999999999986843 0  0.5 0.05833333333322258 0  0.5 0.06666666666657715 0  0.5 0.07499999999993352 0  0.5 0.08333333333328992 0  0.5 0.09166666666664541 0  0.5 0.1088317009011616 0  0.5 0.1176850622760307 0  0.5 0.1265601399260203 0  0.5 0.1354569980178909 0  0.5 0.1443756800158549 0  0.5 0.153316240659315 0  0.5 0.1622787344184454 0  0.5 0.1712632154961752 0  0.5 0.1802697378301332 0  0.5 0.1892983550946039 0  0.5 0.1983491207024433 0  0.5 0.2074220878294123 0  0.5 0.216517320977811 0  0.5 0.2256348634414833 0  0.5 0.2347747685517479 0  0.5 0.2439371050844009 0  0.5 0.2531219095529224 0  0.5 0.2623292564004089 0  0.5 0.2715591844619371 0  0.5 0.2808117567241139 0  0.5 0.290087031391723 0  0.5 0.2993850582216101 0  0.5 0.3087058944347426 0  0.5 0.3180495969703129 0  0.5 0.3274162224879299 0  0.5 0.3368058273696494 0  0.5 0.3462184677220051 0  0.5 0.3556541993780186 0  0.5 0.3651130778991989 0  0.5 0.3745951585775107 0  0.5 0.3841005081166359 0  0.5 0.3936291733052134 0  0.5 0.4031812128194852 0  0.5 0.412756689631945 0  0.5 0.4223556545379392 0  0.5 0.431978167868607 0  0.5 0.4416242912880781 0  0.5 0.4512940759249164 0  0.5 0.4609875815763912 0  0.5 0.4707048677449264 0  0.5 0.4804459958733726 0  0.5 0.4902110204680924 0  0.4900000000000277 0.5 0  0.4800000000000555 0.5 0  0.4700000000000832 0.5 0  0.4600000000001109 0.5 0  0.4500000000001387 0.5 0  0.4400000000001664 0.5 0  0.4300000000001942 0.5 0  0.4200000000002219 0.5 0  0.4100000000002497 0.5 0  0.4000000000002774 0.5 0  0.3900000000003052 0.5 0  0.3800000000003328 0.5 0  0.3700000000003606 0.5 0  0.3600000000003883 0.5 0  0.3500000000004161 0.5 0  0.3400000000004438 0.5 0  0.3300000000004716 0.5 0  0.3200000000004993 0.5 0  0.3100000000005271 0.5 0  0.3000000000005548 0.5 0  0.2900000000005825 0.5 0  0.2800000000006103 0.5 0  0.2700000000006381 0.5 0  0.2600000000006658 0.5 0  0.2500000000006935 0.5 0  0.2400000000007212 0.5 0  0.230000000000749 0.5 0  0.2200000000007767 0.5 0  0.2100000000008044 0.5 0  0.2000000000008322 0.5 0  0.19000000000086 0.5 0  0.1800000000008877 0.5 0  0.1700000000009154 0.5 0  0.1600000000009431 0.5 0  0.1500000000009709 0.5 0  0.1400000000009986 0.5 0  0.1300000000010264 0.5 0  0.1200000000010541 0.5 0  0.1100000000010818 0.5 0  0.1000000000011096 0.5 0  0.09000000000113734 0.5 0  0.08000000000116503 0.5 0  0.07000000000119283 0.5 0  0.06000000000122058 0.5 0  0.05000000000124827 0.5 0  0.04000000000127607 0.5 0  0.03000000000130376 0.5 0  0.02000000000133151 0.5 0  0.01000000000135925 0.5 0  1.376121439022882e-12 0.5 0  -0.009999999998640763 0.5 0  -0.01999999999866864 0.5 0  -0.02999999999869629 0.5 0  -0.03999999999872406 0.5 0  -0.04999999999875182 0.5 0  -0.05999999999877947 0.5 0  -0.06999999999880724 0.5 0  -0.079999999998835 0.5 0  -0.08999999999886266 0.5 0  -0.09999999999889042 0.5 0  -0.1099999999989182 0.5 0  -0.1199999999989459 0.5 0  -0.1299999999989737 0.5 0  -0.1399999999990014 0.5 0  -0.1499999999990291 0.5 0  -0.1599999999990568 0.5 0  -0.1699999999990847 0.5 0  -0.1799999999991124 0.5 0  -0.1899999999991401 0.5 0  -0.1999999999991678 0.5 0  -0.2099999999991955 0.5 0  -0.2199999999992234 0.5 0  -0.2299999999992511 0.5 0  -0.2399999999992788 0.5 0  -0.2499999999993066 0.5 0  -0.2599999999993342 0.5 0  -0.269999999999362 0.5 0  -0.2799999999993897 0.5 0  -0.2899999999994175 0.5 0  -0.2999999999994452 0.5 0  -0.3099999999994729 0.5 0  -0.3199999999995007 0.5 0  -0.3299999999995284 0.5 0  -0.3399999999995562 0.5 0  -0.3499999999995839 0.5 0  -0.3599999999996116 0.5 0  -0.3699999999996393 0.5 0  -0.379999999999667 0.5 0  -0.3899999999996949 0.5 0  -0.3999999999997226 0.5 0  -0.4099999999997503 0.5 0  -0.419999999999778 0.5 0  -0.4299999999998058 0.5 0  -0.4399999999998336 0.5 0  -0.4499999999998613 0.5 0  -0.4599999999998891 0.5 0  -0.4699999999999167 0.5 0  -0.4799999999999445 0.5 0  -0.4899999999999722 0.5 0  -0.5 0.4902110204681464 0  -0.5 0.4804459958734807 0  -0.5 0.4707048677450883 0  -0.5 0.4609875815766065 0  -0.5 0.4512940759251849 0  -0.5 0.4416242912883993 0  -0.5 0.4319781678689807 0  -0.5 0.4223556545383647 0  -0.5 0.4127566896324213 0  -0.5 0.4031812128200121 0  -0.5 0.3936291733057916 0  -0.5 0.3841005081172659 0  -0.5 0.3745951585781932 0  -0.5 0.3651130778999337 0  -0.5 0.3556541993788045 0  -0.5 0.3462184677228392 0  -0.5 0.3368058273705318 0  -0.5 0.3274162224888609 0  -0.5 0.3180495969712945 0  -0.5 0.3087058944357755 0  -0.5 0.299385058222682 0  -0.5 0.2900870313927414 0  -0.5 0.2808117567250807 0  -0.5 0.2715591844628491 0  -0.5 0.2623292564012653 0  -0.5 0.253121909553727 0  -0.5 0.2439371050851549 0  -0.5 0.2347747685524501 0  -0.5 0.2256348634421331 0  -0.5 0.2165173209784076 0  -0.5 0.207422087829958 0  -0.5 0.1983491207029381 0  -0.5 0.1892983550950482 0  -0.5 0.1802697378305253 0  -0.5 0.1712632154965152 0  -0.5 0.1622787344187354 0  -0.5 0.1533162406595534 0  -0.5 0.1443756800160514 0  -0.5 0.1354569980180493 0  -0.5 0.1265601399261414 0  -0.5 0.1176850622761093 0  -0.5 0.1088317009011999 0  -0.5 0.09167500000001694 0  -0.5 0.08335000000003931 0  -0.5 0.07502500000006167 0  -0.5 0.06670000000008947 0  -0.5 0.05837500000011001 0  -0.5 0.0500500000001328 0  -0.5 0.0417250000001127 0  -0.5 0.03340000000008944 0  -0.5 0.02507500000006573 0  -0.5 0.01675000000004653 0  -0.5 0.008425000000027341 
[...]
<PointData  Scalars="f_40"> 
<DataArray  type="Float64"  Name="f_40"  format="ascii">-2.8726982699621255e-02  4.5681729243257094e-05  -2.4048231537106288e-03  -4.0647658836847532e-04  3.0300000000000000e+02  3.0300000000000000e+02  -1.8685640468025825e-07  -1.7862067703454043e-07  -4.4725334621822054e-04  -4.2880780322825351e-04  7.4840969746272113e-06  6.7543670678025529e-06  4.9178398083694802e-05  5.0659043749069435e-05  5.1205165805374349e-05  4.9594823891136717e-05  4.7331314621345657e-05  4.4381018667457731e-05  4.1057221292798800e-05  3.5981462300608839e-05  3.1657914581182914e-05  2.6453876490620455e-05  2.1548797837888106e-05  1.5962102312441821e-05  9.7898706654157126e-06  4.4674245481833558e-06  -5.8250655468380397e-07  -6.8867554252192514e-06  -1.2731924054038987e-05  -2.0010718493857119e-05  -2.6285029395179399e-05  -3.3599130676480394e-05  -4.0821908736284194e-05  -4.7781103308469373e-05  -5.5429433430795080e-05  -6.2949773767302913e-05  -7.1249656139575000e-05  -7.8350427484191024e-05  -8.6700107729447846e-05  -9.6901583693270718e-05  -1.0571462097827237e-04  -1.1496500375799422e-04  -1.2453614187453891e-04  -1.3357750735197541e-04  -1.4407091624515705e-04  -1.5467755064527041e-04  -1.6617955905201976e-04  -1.7697800139746669e-04  -1.8785623506954583e-04  -1.9958654562585420e-04  -2.1169507382338301e-04  -2.2373234830458375e-04  -2.3637790699126599e-04  -2.4955331402630253e-04  -2.6214465533197718e-04  -2.7571623342926199e-04  -2.8858043067844698e-04  -3.0390408200081523e-04  -3.1636681424205475e-04  -3.3053296785729238e-04  -3.4397249461631048e-04  -3.5801650818925588e-04  -3.7198108448411481e-04  -3.8450821935740717e-04  -3.9938785094508297e-04  -4.1483470489908435e-04  -4.2786884360563720e-04  -4.4100972872061642e-04  -4.5490993132055966e-04  -4.6706264400577804e-04  -4.8117742530931170e-04  -4.9375060108393235e-04  -5.0770375009264487e-04  -5.2181185060564956e-04  -5.3301795799390957e-04  -5.4565512412283097e-04  -5.5753853509748802e-04  -5.6961969504832721e-04  -5.8325157905555894e-04  -5.9413824758988828e-04  -6.0595261021875561e-04  -6.1742613899512359e-04  -6.2923453973494207e-04  -6.4234553134236280e-04  -6.5438423318215397e-04  -6.6393433258907361e-04  -6.7551101233227274e-04  -6.8655899727796191e-04  -6.9784526996967346e-04  -7.0993348287680044e-04  -7.2351501941838551e-04  -7.3486176339515130e-04  -7.4984699278045710e-04  -7.6311174800795052e-04  -7.7759043682345522e-04  -7.9108093928225570e-04  -8.0803893295025846e-04  -8.2631562230270589e-04  -8.4581433997783827e-04  -8.7117102512755955e-04  -8.9414157585002651e-04  -9.2007818998334238e-04  -9.5637684992274893e-04  -9.9957530197537000e-04  -1.0418015202420746e-03  -1.1005457482279404e-03  -1.1817674353826837e-03  -1.2919385135994699e-03  -1.4310619138081862e-03  -1.6092551255962723e-03  -1.9309739872243503e-03  -1.7024512977459223e-03  -1.2062289790710117e-03  -9.7696932293919693e-04  -8.5770885913152026e-04  -7.8240090075702891e-04  -7.3263439604734479e-04  -7.0093160292762516e-04  -6.7845142484015204e-04  -6.5946140292346984e-04  -6.4635927804314157e-04  -6.3301108681239890e-04  -6.2421746691773098e-04  -6.1408494383382868e-04  -6.0739831162232938e-04  -5.9951597177794610e-04  -5.9345990539291641e-04  -5.8690214836728638e-04  -5.8105113657372571e-04  -5.7518774754070111e-04  -5.6889763832415564e-04  -5.6298706629235229e-04  -5.5725024665436319e-04  -5.5110050924657460e-04  -5.4457686382592882e-04  -5.3806551061700756e-04  -5.3134515975330327e-04  -5.2534715610975740e-04  -5.1949138768817244e-04  -5.1251904585078944e-04  -5.0587119475521756e-04  -4.9886663304549563e-04  -4.9249725065107688e-04  -4.8542391097746861e-04  -4.7956832329547008e-04  -4.7325050475213260e-04  -4.6708285036884404e-04  -4.6035303804200839e-04  -4.5471896532909520e-04  -4.4845542600009669e-04  -4.4359075011887419e-04  -4.3827713326599307e-04  -4.3332472438496815e-04  -4.2424799680324535e-04  -4.2113589147213678e-04  -4.1737604426990579e-04  -4.1473565991402626e-04  -4.1288480650137314e-04  -4.0924042176983147e-04  -4.0779153384153897e-04  -4.0682258741768512e-04  -4.0635678554024702e-04  -4.0560848346909945e-04  -4.0567086292915089e-04  -4.0715173025492231e-04  -4.0884659166467459e-04  -4.1041451356073181e-04  -4.1271948724869785e-04  -4.1610386511345816e-04  -4.1885228952471892e-04  -4.2218682431753541e-04  -4.2708368364172095e-04  -4.3185423725156438e-04  -4.3582737795290228e-04  -4.4126709433954487e-04  -4.5392084596203086e-04  -4.6088090243948728e-04  -4.6810029360373393e-04  -4.7469487049765172e-04  -4.8336513187667373e-04  -4.9094459485185201e-04  -5.0010472279949053e-04  -5.0831953422791475e-04  -5.1730750539863326e-04  -5.2529245152786144e-04  -5.3487559709898362e-04  -5.4346233147665394e-04  -5.5308331993592422e-04  -5.6245840054465327e-04  -5.7139880443908715e-04  -5.8005764849440328e-04  -5.8853824034555715e-04  -5.9749950810852155e-04  -6.0621621840619962e-04  -6.1496647198624620e-04  -6.2364707323027315e-04  -6.3075630560413380e-04  -6.3887453903556206e-04  -6.4555656107411971e-04  -6.5325785270249929e-04  -6.6033170876777895e-04  -6.6664793611431001e-04  -6.7202202269189891e-04  -6.7852454860206776e-04  -6.8308511977043722e-04  -6.8883709963232299e-04  -6.9317907022444414e-04  -6.9787624527007427e-04  -7.0173229709078128e-04  -7.0485817516120254e-04  -7.0885712032650095e-04  -7.1059626242816511e-04  -7.5169010223269720e-04  1.8910111967325866e-03  -1.2418659006873409e-01  7.5865870460114282e-02  -1.3806476921705690e+00  3.0300000000000000e+02  3.0300000000000000e+02  3.0300000000000000e+02  3.0300000000000000e+02  3.0300000000000000e+02  3.0300000000000000e+02  3.0300000000000000e+02  3.0300000000000000e+02  3.0300000000000000e+02  3.0300000000000000e+02  3.0300000000000000e+02  3.0300000000000000e+02  3.0300000000000000e+02  3.0300000000000000e+02  3.0300000000000000e+02  3.0300000000000000e+02  3.0300000000000000e+02  3.0300000000000000e+02  3.0300000000000000e+02  3.0300000000000000e+02  3.0300000000000000e+02  3.0300000000000000e+02  3.0300000000000000e+02  3.0300000000000000e+02  3.0300000000000000e+02  3.0300000000000000e+02  3.0300000000000000e+02  3.0300000000000000e+02  3.0300000000000000e+02  3.0300000000000000e+02  3.0300000000000000e+02  3.0300000000000000e+02  3.0300000000000000e+02  3.0300000000000000e+02  3.0300000000000000e+02  3.0300000000000000e+02  3.0300000000000000e+02  3.0300000000000000e+02  3.0300000000000000e+02  3.0300000000000000e+02  3.0300000000000000e+02  3.0300000000000000e+02  3.0300000000000000e+02  3.0300000000000000e+02  3.0300000000000000e+02  3.0300000000000000e+02  3.0300000000000000e+02  3.0300000000000000e+02  3.0300000000000000e+02  3.0300000000000000e+02  3.0300000000000000e+02  3.0300000000000000e+02  3.0300000000000000e+02  3.0300000000000000e+02  3.0300000000000000e+02  3.0300000000000000e+02  3.0300000000000000e+02  3.0300000000000000e+02  3.0300000000000000e+02  3.0300000000000000e+02  3.0300000000000000e+02  3.0300000000000000e+02  3.0300000000000000e+02  3.0300000000000000e+02  3.0300000000000000e+02  3.0300000000000000e+02  3.0300000000000000e+02  3.0300000000000000e+02  3.0300000000000000e+02  3.0300000000000000e+02  3.0300000000000000e+02  3.0300000000000000e+02  3.0300000000000000e+02  3.0300000000000000e+02  3.0300000000000000e+02  3.0300000000000000e+02  3.0300000000000000e+02  3.0300000000000000e+02  3.0300000000000000e+02  3.0300000000000000e+02  3.0300000000000000e+02  3.0300000000000000e+02  3.0300000000000000e+02  3.0300000000000000e+02  3.0300000000000000e+02  3.0300000000000000e+02  3.0300000000000000e+02  3.0300000000000000e+02  3.0300000000000000e+02  3.0300000000000000e+02  3.0300000000000000e+02  3.0300000000000000e+02  3.0300000000000000e+02  3.0300000000000000e+02  3.0300000000000000e+02  3.0300000000000000e+02  3.0300000000000000e+02  3.0300000000000000e+02  3.0300000000000000e+02  -8.9929780962112571e-01  8.8396951523862025e-02  -8.4529690439675703e-02  1.6631724420921317e-03  9.1446412527809755e-05  1.1178304429833225e-04  1.1116557077080490e-04  1.0992281540376828e-04  1.0832121909715278e-04  1.0712172229847034e-04  1.0590240553254219e-04  1.0375475257779775e-04  1.0166702913643144e-04  1.0011090479868463e-04  9.7337093365168590e-05  9.5625180205844232e-05  9.3198099381185896e-05  9.0356412577694800e-05  8.7822405549324104e-05  8.4814606521287179e-05  8.2564103581639635e-05  7.8724180408293434e-05  7.5879691339447478e-05  7.2494026477087816e-05  6.8606048795442581e-05  6.5377259686396621e-05  6.2030439897463441e-05  5.8783439678707643e-05  5.4232896601266381e-05  5.0931481070168927e-05  4.6084156566224450e-05  4.2938788977162263e-05  3.9740476633551592e-05  3.5089207532568369e-05  3.1763356993609710e-05  2.8131063116083380e-05  2.4482011496628967e-05  2.0731303111852148e-05  1.7403856464017711e-05  1.4518970174711317e-05  1.1673601716043341e-05  9.2071601804375295e-06  4.6647892325987986e-06  3.1286836145790362e-06  1.7134135011512603e-06  8.6402741106310472e-07  1.6364825655622953e-07  -4.4576573550598528e-07  -5.4179391565158951e-07  -5.1900148453741351e-07  -3.9996431883813024e-07  -3.1197905589541481e-07  -2.0829254139063802e-07  -5.1355299395373305e-07  -1.1567217240463993e-06  -1.5220322899747360e-06  -1.6736815284424268e-06  -1.1545931794553872e-06  -1.8544442380638286e-07  1.2522562223102920e-06  2.5259470943315903e-06  4.9204196872213893e-06  8.5105530965668628e-06  1.1641526719416392e-05  1.4896609082872809e-05  1.9867891590333092e-05  2.3596781412270548e-05  2.8173135942443093e-05  3.4000987311197058e-05  3.7655110685703473e-05  4.3195637425508368e-05  5.0585202195201342e-05  5.6148954067116188e-05  6.1563788100340108e-05  6.8936397757177203e-05  7.2826722531490080e-05  7.9402949778806123e-05  8.8796172701997676e-05  9.5269593597914202e-05  1.0161361625356909e-04  1.1017585944715447e-04  1.1378498574122643e-04  1.2113665426206552e-04  1.3244130446462733e-04  1.3963630656766386e-04  1.4677868089529940e-04  1.5625085476944991e-04  1.5950704102815787e-04  1.6750640791321212e-04  1.8042295179457516e-04  1.8727488967466973e-04  1.9552868039374348e-04  2.0651105123588686e-04  2.1000782488501314e-04  2.1881185213054466e-04  2.3289464292835347e-04  2.4042529757372115e-04  2.4891988324279786e-04  2.6006577116554009e-04  2.6251766980701360e-04  2.6995632384526242e-04  2.8344137692513357e-04  2.8730794483644508e-04  2.9051520897817741e-04  2.9437547125822020e-04  2.9718542838746352e-04  2.2089127705118353e-04  -8.2290916707873120e-03  -5.3402824374079215e-03  2.9044059723776742e-04  3.0579520048999888e-04  2.9650605170360346e-04  2.9358450902824149e-04  2.9134258037294365e-04  2.8573056452793860e-04  2.7215927440231593e-04  2.6451495383055299e-04  2.6209769054619204e-04  2.5218020343723745e-04  2.4332493001241330e-04  2.3387895867586487e-04  2.1917548682647334e-04  2.1023678259032730e-04  2.0678958239309537e-04  1.9644646516877448e-04  1.8821797533480445e-04  1.8002948494824872e-04  1.6700239695802477e-04  1.5893113586967750e-04  1.5541737047610623e-04  1.4582809110326287e-04  1.3864463732456064e-04  1.3152014453012448e-04  1.2061650097177566e-04  1.1333858619962993e-04  1.0956769966109228e-04  1.0104993131689143e-04  9.4654546270650722e-05  8.8376576903848202e-05  7.9446548213120879e-05  7.3101065687087880e-05  6.9206941584884187e-05  6.1960973817620709e-05  5.6522065326413501e-05  5.1156578674344123e-05  4.4126426513988431e-05  3.8723383249707091e-05  3.5021272901491724e-05  2.9231199130820172e-05  2.4812097862367338e-05  2.1100410534677760e-05  1.6192664378314313e-05  1.2932389305104202e-05  9.7325209715214067e-06  6.0815956236043210e-06  3.5057560237124854e-06  2.0795283733674591e-06  5.9400697306720035e-07  -6.0315290157997663e-07  -1.3130576355998003e-06  -1.2978085823576653e-06  -1.0316536129675474e-06  -4.7699131609952901e-07  -1.9644653961805470e-07  -2.7870481780342889e-07  -3.4348312931690560e-07  -4.1437079393553713e-07  -3.6001786186270892e-07  -1.9477276958331626e-07  5.0696911725384399e-07  1.3062793401111643e-06  2.2478045697485165e-06  3.7411119139327687e-06  5.3635628337263459e-06  9.9824976131146360e-06  1.2369991415965758e-05  1.5349150184124253e-05  1.8196609576601520e-05  2.1412102074496429e-05  2.4936284740271464e-05  2.8426262855241546e-05  3.1858656262938888e-05  3.4783431174642711e-05  3.8998027608509908e-05  4.1942239362990894e-05  4.4596509522881533e-05  4.8760182257888612e-05  5.1487113895502903e-05  5.5116896450606115e-05  5.7695171178902625e-05  6.0235303779464916e-05  6.2418459412959455e-05  6.5049727386567828e-05  6.7245479676064152e-05  6.8835292890907654e-05  7.0872822569023863e-05  7.1845126022671832e-05  7.2786342961243583e-05  7.3618184029917660e-05  7.4116110386682793e-05  7.4408362571359163e-05  7.3820106463473774e-05  7.3476270769466689e-05  7.2794583203465631e-05  7.1244290403278991e-05  7.0238206439151649e-05  6.8012986585065866e-05  6.5239506624888773e-05  6.2636546291861114e-05  5.9641279827627352e-05  5.5543901611830124e-05  5.1074243007534471e-05  4.6032665819423910e-05  4.1747390628760057e-05  3.7304236157338917e-05  3.6911907768288706e-05  7.9670709613585291e-06  9.5296314041046122e-06  1.0900652409358378e-05  1.1870356767446315e-05  1.3214512319086266e-05  1.3969184748584757e-05  1.5243655760958140e-05  1.6021139669299300e-05  1.6775084493329852e-05  1.8077730932270947e-05  1.8926923675663006e-05  1.9913204631643296e-05  2.0830828918692921e-05  2.1882288885238954e-05  2.3353380662731833e-05  2.4126967508362132e-05  2.5593302188916736e-05  2.6658047443514643e-05  2.7470231921537364e-05  2.9144461906208314e-05  2.9846342520883413e-05  3.1465851651794108e-05  3.2003916830784840e-05  3.3270439532141252e-05  3.4788107967270140e-05  3.5183631362208389e-05  3.6170586029460277e-05  3.7404787781065563e-05  3.7268660409773691e-05  3.7618273122094932e-05  3.8603587130610443e-05  3.8342941624908952e-05  3.8048441126835119e-05  3.7863124903856165e-05  3.5975540892810447e-05  3.6209770176927420e-05  3.4198976525872318e-05  3.2096077225478324e-05  2.9480595953372462e-05  2.6318180699940103e-05  2.2765692656211650e-05  1.7765975323255610e-05  1.3253041428641157e-05  6.3068137443103793e-06  -1.9623096450491393e-06  -9.6599646834023963e-06  -2.1510011658166395e-05  -3.1290665913740383e-05  -4.5657532619411344e-05  -6.3463940228001832e-05  -8.2897075328972785e-05  -1.0992766822328815e-04  -1.3648271733500362e-04  -1.7162944810456910e-04  -2.1990840540167653e-04  -2.5999937383002723e-04  -3.2510255460468365e-04  -3.8644197007843144e-04  -4.5189650472312465e-04  -5.2583955704963814e-04  -5.8527836359284968e-04  -6.4137674507143763e-04  -7.0054140086941107e-04  -7.4324756186870699e-04  -7.7494354961612274e-04  -7.9948218403593180e-04  -8.1741877729975395e-04  -8.2761313907103457e-04  -8.2873624867937175e-04  -8.2717095777072526e-04  -8.2233153200871739e-04  -8.1953663719889136e-04  -8.0639760777129676e-04  -7.9476462997764210e-04  -7.8624735514524525e-04  -7.7497786048465558e-04  -7.6118854905978634e-04  -7.5221666730422641e-04  -7.3856958967259061e-04  -7.2605236513001165e-04  -7.1777063868983144e-04  -7.0484431846863313e-04  -6.9413883992561741e-04  -6.8318672585952918e-04  -6.7288902349168578e-04  -6.6356758992063372e-04  -6.5389452286810214e-04  -6.4437522085249198e-04  -6.3516467586867333e-04  -6.2621248770154442e-04  -6.1828851458588523e-04  -6.0967875666970129e-04  -6.0125748059070179e-04  -5.9284356589387084e-04  -5.8480636667681922e-04  -5.7719621323284347e-04  -5.6954993694004695e-04  -5.6157845814341825e-04  -5.5339833314823955e-04  -5.4567539107298034e-04  -5.3785404856685447e-04  -5.2954220364369168e-04  -5.2165741197334121e-04  -5.1418022501273494e-04  -5.0548381825154577e-04  -4.9791875721884771e-04  -4.8892753155777653e-04  -4.8020428185436100e-04  -4.7205150345532780e-04  -4.6298876356047034e-04  -4.5412919384747497e-04  8.4589596392062420e-06  9.7188440603386473e-06  1.0770090732675893e-05  1.1492177062688002e-05  1.2564217269476052e-05  1.3093896665853754e-05  1.4116181022233983e-05  1.4705711800858656e-05  1.5253063416128327e-05  1.6348510896140450e-05  1.7020715032308407e-05  1.7806926186904825e-05  1.8575439240438676e-05  1.9465708032145501e-05  2.0729857738020893e-05  2.1336834370195152e-05  2.2602566615224624e-05  2.3610222917805464e-05  2.4233914945001164e-05  2.5715515392327249e-05  2.6284402330799777e-05  2.7787675089048814e-05  2.8228131370326738e-05  2.9272738555077091e-05  3.0716632216954720e-05  3.0912501627301652e-05  3.1762406730018743e-05  3.2976622668561498e-05  3.2714452951413483e-05  3.3001269147117223e-05  3.3949992646917588e-05  3.3515417716690827e-05  3.3238285036810550e-05  3.3030603241410031e-05  3.0999631928156130e-05  3.1369027228601173e-05  2.9319106139225943e-05  2.7171972605123773e-05  2.4651343795271740e-05  2.1644080833965553e-05  1.7916872043037678e-05  1.3101413351183475e-05  8.8186142639692720e-06  1.9807652196896223e-06  -6.1369182034980398e-06  -1.3635354005372292e-05  -2.5106614970128982e-05  -3.4903034853965100e-05  -4.8489325853638203e-05  -6.5632382320277431e-05  -8.4402005014642817e-05  -1.0988562822801484e-04  -1.3599585797670840e-04  -1.6859709551183814e-04  -2.1338935380023374e-04  -2.5232512106578676e-04  -3.1322017041573812e-04  -3.7212986212627994e-04  -4.3375016665061274e-04  -5.0619362972550226e-04  -5.6523376024656053e-04  -6.2101879233226911e-04  -6.8114324034206444e-04  -7.2665046412321470e-04  -7.6019924929258498e-04  -7.8841047796680320e-04  -8.0896958425006064e-04  -8.2269203311096544e-04  -8.2645399794233608e-04  -8.2808988715921746e-04  -8.2553207385702837e-04  -8.2513439220360319e-04  -8.1361181332528212e-04  -8.0357641385425595e-04  -7.9626282139826890e-04  -7.8614402035147638e-04  -7.7295046636464114e-04  -7.6463744038808481e-04  -7.5142267238144866e-04  -7.3917082799337735e-04  -7.3097467693620632e-04  -7.1793601584460836e-04  -7.0712210354191497e-04  -6.9604904934937974e-04  -6.8515422389219471e-04  -6.7541095361473024e-04  -6.6508027889806509e-04  -6.5489516883807325e-04  -6.4498147999039138e-04  -6.3503531037138023e-04  -6.2624713344775938e-04  -6.1667202648477094e-04  -6.0722293732904721e-04  -5.9784121129859450e-04  -5.8852640384615793e-04  -5.7989955363486152e-04  -5.7116094763058297e-04  -5.6177331326594010e-04  -5.5245873480584088e-04  -5.4337100153264907e-04  -5.3412542474124769e-04  -5.2439984695451731e-04  -5.1519089729346588e-04  -5.0633938432681068e-04  -4.9627761099694319e-04  -4.8739034824319034e-04  -4.7688840797985885e-04  -4.6699024591899353e-04  -4.5710867021796372e-04  -4.4678154680006626e-04  -4.3632636163350419e-04  -2.7003177880508326e-02  -1.4803878459766478e-02  -8.9743245281026073e-03  -5.9668343087427109e-03  -4.4030113096747425e-03  -3.3832034241329818e-03  -2.6963678831625356e-03  -2.2718940959372395e-03  -1.9531262171390224e-03  -1.7278138957120882e-03  -1.5592603997784025e-03  -1.4146901237585734e-03  -1.3078476436223850e-03  -1.2141075500834615e-03  -1.1421584488542839e-03  -1.0768927502896298e-03  -1.0253699465908948e-03  -9.8152228077753433e-04  -9.4019871572383691e-04  -9.0405549830431932e-04  -8.7458368975665193e-04  -8.4320889034923121e-04  -8.1967997268736330e-04  -7.9810966962155848e-04  -7.7568731214352896e-04  -7.5568764713269639e-04  -7.3763225563535067e-04  -7.2129182715107733e-04  -7.0616111433052103e-04  -6.9089278161510047e-04  -6.7724926888862046e-04  -6.6356746511975521e-04  -6.5097716903130334e-04  -6.3889141471087593e-04  -6.2773117123863793e-04  -6.1652768441761445e-04  -6.0534290232339583e-04  -5.9435744886440951e-04  -5.8388300813200450e-04  -5.7393954348617217e-04  -5.6371922423722044e-04  -5.5343440500618766e-04  -5.4365058575934946e-04  -5.3369431962400134e-04  -5.2386692830599685e-04  -5.1343468527952909e-04  -5.0307325626467890e-04  -4.9292212480346706e-04  -4.8246364409942135e-04  -4.7170894862540950e-04  -4.6086627760289042e-04  -4.5016746581053821e-04  -4.3835055271633695e-04  -4.2731382532650215e-04  -4.1503702398818740e-04  -1.9309374520377749e-04  -3.3115905805476718e-05  -4.2416402582557317e-04  -5.671993377