<?xml version="1.0"?>
<VTKFile type="UnstructuredGrid"  version="0.1"  >
<UnstructuredGrid>
<Piece  NumberOfPoints="12492" NumberOfCells="24902">
<Points>
<DataArray  type="Float64"  NumberOfComponents="3"  format="ascii">-0.5 0.5 0  0.5 0.5 0  0.5 -0.5 0  -0.5 -0.5 0  -0.25 0 0  0.25 0 0  -0.4500000000001387 0.5 0  -0.4000000000002774 0.5 0  -0.3500000000004161 0.5 0  -0.3000000000005548 0.5 0  -0.2500000000006935 0.5 0  -0.2000000000008322 0.5 0  -0.1500000000009709 0.5 0  -0.1000000000011096 0.5 0  -0.05000000000124821 0.5 0  -1.376121439022882e-12 0.5 0  0.04999999999875171 0.5 0  0.09999999999889042 0.5 0  0.1499999999990291 0.5 0  0.1999999999991677 0.5 0  0.2499999999993064 0.5 0  0.2999999999994452 0.5 0  0.349999999999584 0.5 0  0.3999999999997227 0.5 0  0.4499999999998613 0.5 0  0.5 0.4500000000001387 0  0.5 0.4000000000002774 0  0.5 0.3500000000004161 0  0.5 0.3000000000005548 0  0.5 0.2500000000006935 0  0.5 0.2000000000008322 0  0.5 0.1500000000009709 0  0.5 0.1000000000011096 0  0.5 0.05000000000124821 0  0.5 1.376121439022882e-12 0  0.5 -0.04999999999875171 0  0.5 -0.09999999999889042 0  0.5 -0.1499999999990291 0  0.5 -0.1999999999991677 0  0.5 -0.2499999999993064 0  0.5 -0.2999999999994452 0  0.5 -0.349999999999584 0  0.5 -0.3999999999997227 0  0.5 -0.4499999999998613 0  0.4500000000001387 -0.5 0  0.4000000000002774 -0.5 0  0.3500000000004161 -0.5 0  0.3000000000005548 -0.5 0  0.2500000000006935 -0.5 0  0.2000000000008322 -0.5 0  0.1500000000009709 -0.5 0  0.1000000000011096 -0.5 0  0.05000000000124821 -0.5 0  1.376121439022882e-12 -0.5 0  -0.04999999999875171 -0.5 0  -0.09999999999889042 -0.5 0  -0.1499999999990291 -0.5 0  -0.1999999999991677 -0.5 0  -0.2499999999993064 -0.5 0  -0.2999999999994452 -0.5 0  -0.349999999999584 -0.5 0  -0.3999999999997227 -0.5 0  -0.4499999999998613 -0.5 0  -0.5 -0.4500000000001387 0  -0.5 -0.4000000000002774 0  -0.5 -0.3500000000004161 0  -0.5 -0.3000000000005548 0  -0.5 -0.2500000000006935 0  -0.5 -0.2000000000008322 0  -0.5 -0.1500000000009709 0  -0.5 -0.1000000000011096 0  -0.5 -0.05000000000124821 0  -0.5 -1.376121439022882e-12 0  -0.5 0.04999999999875171 0  -0.5 0.09999999999889042 0  -0.5 0.1499999999990291 0  -0.5 0.1999999999991677 0  -0.5 0.2499999999993064 0  -0.5 0.2999999999994452 0  -0.5 0.349999999999584 0  -0.5 0.3999999999997227 0  -0.5 0.4499999999998613 0  -0.2490000000000028 0 0  -0.2480000000000055 0 0  -0.2470000000000083 0 0  -0.2460000000000111 0 0  -0.2450000000000139 0 0  -0.2440000000000167 0 0  -0.2430000000000195 0 0  -0.2420000000000222 0 0  -0.241000000000025 0 0  -0.2400000000000278 0 0  -0.2390000000000305 0 0  -0.2380000000000333 0 0  -0.2370000000000361 0 0  -0.2360000000000389 0 0  -0.2350000000000417 0 0  -0.2340000000000445 0 0  -0.2330000000000472 0 0  -0.23200000000005 0 0  -0.2310000000000528 0 0  -0.2300000000000555 0 0  -0.2290000000000583 0 0  -0.2280000000000611 0 0  -0.2270000000000639 0 0  -0.2260000000000667 0 0  -0.2250000000000695 0 0  -0.2240000000000722 0 0  -0.223000000000075 0 0  -0.2220000000000778 0 0  -0.2210000000000806 0 0  -0.2200000000000834 0 0  -0.2190000000000861 0 0  -0.2180000000000889 0 0  -0.2170000000000917 0 0  -0.2160000000000944 0 0  -0.2150000000000972 0 0  -0.2140000000001 0 0  -0.2130000000001028 0 0  -0.2120000000001056 0 0  -0.2110000000001084 0 0  -0.2100000000001111 0 0  -0.2090000000001139 0 0  -0.2080000000001167 0 0  -0.2070000000001194 0 0  -0.2060000000001223 0 0  -0.205000000000125 0 0  -0.2040000000001278 0 0  -0.2030000000001306 0 0  -0.2020000000001334 0 0  -0.2010000000001361 0 0  -0.2000000000001389 0 0  -0.1990000000001417 0 0  -0.1980000000001444 0 0  -0.1970000000001473 0 0  -0.19600000000015 0 0  -0.1950000000001528 0 0  -0.1940000000001556 0 0  -0.1930000000001584 0 0  -0.1920000000001612 0 0  -0.1910000000001639 0 0  -0.1900000000001667 0 0  -0.1890000000001695 0 0  -0.1880000000001723 0 0  -0.187000000000175 0 0  -0.1860000000001778 0 0  -0.1850000000001806 0 0  -0.1840000000001834 0 0  -0.1830000000001861 0 0  -0.1820000000001889 0 0  -0.1810000000001917 0 0  -0.1800000000001945 0 0  -0.1790000000001973 0 0  -0.1780000000002 0 0  -0.1770000000002028 0 0  -0.1760000000002056 0 0  -0.1750000000002084 0 0  -0.1740000000002112 0 0  -0.1730000000002139 0 0  -0.1720000000002167 0 0  -0.1710000000002195 0 0  -0.1700000000002223 0 0  -0.169000000000225 0 0  -0.1680000000002278 0 0  -0.1670000000002306 0 0  -0.1660000000002333 0 0  -0.1650000000002361 0 0  -0.1640000000002389 0 0  -0.1630000000002417 0 0  -0.1620000000002445 0 0  -0.1610000000002473 0 0  -0.1600000000002501 0 0  -0.1590000000002528 0 0  -0.1580000000002556 0 0  -0.1570000000002584 0 0  -0.1560000000002612 0 0  -0.1550000000002639 0 0  -0.1540000000002667 0 0  -0.1530000000002695 0 0  -0.1520000000002723 0 0  -0.151000000000275 0 0  -0.1500000000002778 0 0  -0.1490000000002806 0 0  -0.1480000000002834 0 0  -0.1470000000002862 0 0  -0.1460000000002889 0 0  -0.1450000000002917 0 0  -0.1440000000002945 0 0  -0.1430000000002973 0 0  -0.1420000000003001 0 0  -0.1410000000003028 0 0  -0.1400000000003056 0 0  -0.1390000000003084 0 0  -0.1380000000003112 0 0  -0.1370000000003139 0 0  -0.1360000000003167 0 0  -0.1350000000003195 0 0  -0.1340000000003223 0 0  -0.1330000000003251 0 0  -0.1320000000003278 0 0  -0.1310000000003306 0 0  -0.1300000000003334 0 0  -0.1290000000003362 0 0  -0.128000000000339 0 0  -0.1270000000003417 0 0  -0.1260000000003445 0 0  -0.1250000000003473 0 0  -0.1240000000003501 0 0  -0.1230000000003528 0 0  -0.1220000000003556 0 0  -0.1210000000003584 0 0  -0.1200000000003612 0 0  -0.119000000000364 0 0  -0.1180000000003667 0 0  -0.1170000000003695 0 0  -0.1160000000003722 0 0  -0.1150000000003751 0 0  -0.1140000000003778 0 0  -0.1130000000003806 0 0  -0.1120000000003834 0 0  -0.1110000000003862 0 0  -0.1100000000003889 0 0  -0.1090000000003917 0 0  -0.1080000000003945 0 0  -0.1070000000003972 0 0  -0.1060000000004 0 0  -0.1050000000004028 0 0  -0.1040000000004056 0 0  -0.1030000000004083 0 0  -0.1020000000004111 0 0  -0.1010000000004139 0 0  -0.1000000000004166 0 0  -0.09900000000041945 0 0  -0.09800000000042219 0 0  -0.097000000000425 0 0  -0.09600000000042774 0 0  -0.09500000000043055 0 0  -0.09400000000043332 0 0  -0.09300000000043609 0 0  -0.09200000000043887 0 0  -0.09100000000044162 0 0  -0.09000000000044442 0 0  -0.08900000000044717 0 0  -0.08800000000044997 0 0  -0.08700000000045272 0 0  -0.08600000000045552 0 0  -0.08500000000045829 0 0  -0.08400000000046107 0 0  -0.08300000000046384 0 0  -0.08200000000046659 0 0  -0.08100000000046939 0 0  -0.08000000000047214 0 0  -0.07900000000047494 0 0  -0.07800000000047769 0 0  -0.07700000000048049 0 0  -0.07600000000048326 0 0  -0.07500000000048604 0 0  -0.07400000000048881 0 0  -0.07300000000049159 0 0  -0.07200000000049436 0 0  -0.07100000000049711 0 0  -0.07000000000049991 0 0  -0.06900000000050266 0 0  -0.06800000000050546 0 0  -0.06700000000050824 0 0  -0.06600000000051101 0 0  -0.06500000000051379 0 0  -0.06400000000051656 0 0  -0.06300000000051934 0 0  -0.06200000000052208 0 0  -0.06100000000052488 0 0  -0.06000000000052763 0 0  -0.05900000000053043 0 0  -0.05800000000053318 0 0  -0.05700000000053598 0 0  -0.05600000000053876 0 0  -0.05500000000054153 0 0  -0.05400000000054431 0 0  -0.05300000000054705 0 0  -0.05200000000054986 0 0  -0.0510000000005526 0 0  -0.05000000000055541 0 0  -0.04900000000055815 0 0  -0.04800000000056096 0 0  -0.04700000000056373 0 0  -0.0460000000005665 0 0  -0.04500000000056928 0 0  -0.04400000000057203 0 0  -0.04300000000057483 0 0  -0.04200000000057758 0 0  -0.04100000000058038 0 0  -0.04000000000058312 0 0  -0.03900000000058593 0 0  -0.0380000000005887 0 0  -0.03700000000059148 0 0  -0.03600000000059425 0 0  -0.035000000000597 0 0  -0.0340000000005998 0 0  -0.03300000000060255 0 0  -0.03200000000060535 0 0  -0.0310000000006081 0 0  -0.0300000000006109 0 0  -0.02900000000061367 0 0  -0.02800000000061645 0 0  -0.02700000000061922 0 0  -0.026000000000622 0 0  -0.02500000000062477 0 0  -0.02400000000062752 0 0  -0.02300000000063032 0 0  -0.02200000000063307 0 0  -0.02100000000063587 0 0  -0.02000000000063865 0 0  -0.01900000000064142 0 0  -0.0180000000006442 0 0  -0.01700000000064697 0 0  -0.01600000000064974 0 0  -0.01500000000065249 0 0  -0.01400000000065529 0 0  -0.01300000000065804 0 0  -0.01200000000066084 0 0  -0.01100000000066362 0 0  -0.01000000000066639 0 0  -0.009000000000669167 0 0  -0.008000000000671942 0 0  -0.007000000000674717 0 0  -0.006000000000677463 0 0  -0.005000000000680266 0 0  -0.004000000000683013 0 0  -0.003000000000684566 0 0  -0.002000000000685953 0 0  -0.00100000000068734 0 0  -6.887546089018315e-13 0 0  0.0009999999993126618 0 0  0.00199999999931405 0 0  0.002999999999315439 0 0  0.003999999999316939 0 0  0.004999999999319715 0 0  0.005999999999322492 0 0  0.006999999999325268 0 0  0.007999999999327989 0 0  0.008999999999330766 0 0  0.009999999999333598 0 0  0.01099999999933637 0 0  0.01199999999933909 0 0  0.01299999999934193 0 0  0.0139999999993447 0 0  0.01499999999934748 0 0  0.0159999999993502 0 0  0.01699999999935303 0 0  0.01799999999935581 0 0  0.01899999999935853 0 0  0.01999999999936136 0 0  0.02099999999936414 0 0  0.02199999999936691 0 0  0.02299999999936964 0 0  0.02399999999937247 0 0  0.02499999999937524 0 0  0.02599999999937797 0 0  0.0269999999993808 0 0  0.02799999999938357 0 0  0.02899999999938635 0 0  0.02999999999938907 0 0  0.0309999999993919 0 0  0.03199999999939468 0 0  0.03299999999939746 0 0  0.03399999999940023 0 0  0.03499999999940301 0 0  0.03599999999940579 0 0  0.03699999999940851 0 0  0.03799999999941134 0 0  0.03899999999941411 0 0  0.03999999999941689 0 0  0.04099999999941967 0 0  0.04199999999942244 0 0  0.04299999999942522 0 0  0.04399999999942794 0 0  0.04499999999943077 0 0  0.04599999999943355 0 0  0.04699999999943633 0 0  0.0479999999994391 0 0  0.04899999999944188 0 0  0.04999999999944466 0 0  0.05099999999944743 0 0  0.05199999999945021 0 0  0.0529
[...]
<PointData  Scalars="f_41"> 
<DataArray  type="Float64"  Name="f_41"  format="ascii">-5.7081996175857053e-01  -6.1375010378802108e-01  -1.2646052982937790e+00  -1.1558560112147902e+00  3.0300000000000000e+02  -6.5215755084508131e-01  -5.6509076029839866e-01  -5.4513700226397599e-01  -5.2984696159715705e-01  -5.1790845318690371e-01  -5.0169245909378102e-01  -4.8461529064139369e-01  -4.8526879554608809e-01  -4.8395846108211804e-01  -4.8759035321055844e-01  -4.9688752642323236e-01  -5.0559572838617484e-01  -5.1633253528626633e-01  -5.3207870469341023e-01  -5.4896756635472177e-01  -5.6024342138631333e-01  -5.6965114469561240e-01  -5.8032067094486572e-01  -5.8994849548369277e-01  -6.0033504305143359e-01  -6.1460518445674917e-01  -6.0965871682617534e-01  -6.0237790312025818e-01  -5.9527482442927582e-01  -5.8371796889942928e-01  -5.6574319431281095e-01  -5.5579166468484975e-01  -5.3701875313785830e-01  -5.2951689515302580e-01  -5.2127819276562859e-01  -5.1710100269980575e-01  -5.2176236115200958e-01  -5.2192987257515011e-01  -5.3241476035941449e-01  -5.3973271378289467e-01  -5.4509173047917336e-01  -5.8548230883146679e-01  -6.2553191210204762e-01  -7.7730168941982558e-01  -9.3586951937235108e-01  -8.6689668669731179e-01  -8.1280665878022629e-01  -7.8289358695336686e-01  -7.6771164242579437e-01  -7.2923811931698246e-01  -7.1014050783035998e-01  -6.8074345868592712e-01  -6.4155624573492620e-01  -6.1857160531611710e-01  -5.8977931488584778e-01  -5.7507417276933892e-01  -5.7514437640669736e-01  -5.9701357907728336e-01  -6.2790946970180717e-01  -6.6299292600331350e-01  -7.1218848519690714e-01  -7.5251327742080065e-01  -8.7736936605224336e-01  -7.2151505086647016e-01  -6.0512150988194424e-01  -5.7929938701574757e-01  -5.8214061733410050e-01  -5.8932297279085077e-01  -5.7982451336772123e-01  -5.6328267079946714e-01  -5.2198524673923274e-01  -4.7893737094061994e-01  -4.6182703960831589e-01  -4.9082215836393611e-01  -5.3994977538649824e-01  -5.8329100778377829e-01  -6.0776681771386587e-01  -6.1422318035213075e-01  -6.0789759346570438e-01  -5.9558063661748328e-01  -5.8639443608006847e-01  -5.7646926179333502e-01  3.0300000000000000e+02  3.0300000000000000e+02  3.0300000000000000e+02  3.0300000000000000e+02  3.0300000000000000e+02  3.0300000000000000e+02  3.0300000000000000e+02  3.0300000000000000e+02  3.0300000000000000e+02  3.0300000000000000e+02  3.0300000000000000e+02  3.0300000000000000e+02  3.0300000000000000e+02  3.0300000000000000e+02  3.0300000000000000e+02  3.0300000000000000e+02  3.0300000000000000e+02  3.0300000000000000e+02  3.0300000000000000e+02  3.0300000000000000e+02  3.0300000000000000e+02  3.0300000000000000e+02  3.0300000000000000e+02  3.0300000000000000e+02  3.0300000000000000e+02  3.0300000000000000e+02  3.0300000000000000e+02  3.0300000000000000e+02  3.0300000000000000e+02  3.0300000000000000e+02  3.0300000000000000e+02  3.0300000000000000e+02  3.0300000000000000e+02  3.0300000000000000e+02  3.0300000000000000e+02  3.0300000000000000e+02  3.0300000000000000e+02  3.0300000000000000e+02  3.0300000000000000e+02  3.0300000000000000e+02  3.0300000000000000e+02  3.0300000000000000e+02  3.0300000000000000e+02  3.0300000000000000e+02  3.0300000000000000e+02  3.0300000000000000e+02  3.0300000000000000e+02  3.0300000000000000e+02  3.0300000000000000e+02  3.0300000000000000e+02  3.0300000000000000e+02  3.0300000000000000e+02  3.0300000000000000e+02  3.0300000000000000e+02  3.0300000000000000e+02  3.0300000000000000e+02  3.0300000000000000e+02  3.0300000000000000e+02  3.0300000000000000e+02  3.0300000000000000e+02  3.0300000000000000e+02  3.0300000000000000e+02  3.0300000000000000e+02  3.0300000000000000e+02  3.0300000000000000e+02  3.0300000000000000e+02  3.0300000000000000e+02  3.0300000000000000e+02  3.0300000000000000e+02  3.0300000000000000e+02  3.0300000000000000e+02  3.0300000000000000e+02  3.0300000000000000e+02  3.0300000000000000e+02  3.0300000000000000e+02  3.0300000000000000e+02  3.0300000000000000e+02  3.0300000000000000e+02  3.0300000000000000e+02  3.0300000000000000e+02  3.0300000000000000e+02  3.0300000000000000e+02  3.0300000000000000e+02  3.0300000000000000e+02  3.0300000000000000e+02  3.0300000000000000e+02  3.0300000000000000e+02  3.0300000000000000e+02  3.0300000000000000e+02  3.0300000000000000e+02  3.0300000000000000e+02  3.0300000000000000e+02  3.0300000000000000e+02  3.0300000000000000e+02  3.0300000000000000e+02  3.0300000000000000e+02  3.0300000000000000e+02  3.0300000000000000e+02  3.0300000000000000e+02  3.0300000000000000e+02  3.0300000000000000e+02  3.0300000000000000e+02  3.0300000000000000e+02  3.0300000000000000e+02  3.0300000000000000e+02  3.0300000000000000e+02  3.0300000000000000e+02  3.0300000000000000e+02  3.0300000000000000e+02  3.0300000000000000e+02  3.0300000000000000e+02  3.0300000000000000e+02  3.0300000000000000e+02  3.0300000000000000e+02  3.0300000000000000e+02  3.0300000000000000e+02  3.0300000000000000e+02  3.0300000000000000e+02  3.0300000000000000e+02  3.0300000000000000e+02  3.0300000000000000e+02  3.0300000000000000e+02  3.0300000000000000e+02  3.0300000000000000e+02  3.0300000000000000e+02  3.0300000000000000e+02  3.0300000000000000e+02  3.0300000000000000e+02  3.0300000000000000e+02  3.0300000000000000e+02  3.0300000000000000e+02  3.0300000000000000e+02  3.0300000000000000e+02  3.0300000000000000e+02  3.0300000000000000e+02  3.0300000000000000e+02  3.0300000000000000e+02  3.0300000000000000e+02  3.0300000000000000e+02  3.0300000000000000e+02  3.0300000000000000e+02  3.0300000000000000e+02  3.0300000000000000e+02  3.0300000000000000e+02  3.0300000000000000e+02  3.0300000000000000e+02  3.0300000000000000e+02  3.0300000000000000e+02  3.0300000000000000e+02  3.0300000000000000e+02  3.0300000000000000e+02  3.0300000000000000e+02  3.0300000000000000e+02  3.0300000000000000e+02  3.0300000000000000e+02  3.0300000000000000e+02  3.0300000000000000e+02  3.0300000000000000e+02  3.0300000000000000e+02  3.0300000000000000e+02  3.0300000000000000e+02  3.0300000000000000e+02  3.0300000000000000e+02  3.0300000000000000e+02  3.0300000000000000e+02  3.0300000000000000e+02  3.0300000000000000e+02  3.0300000000000000e+02  3.0300000000000000e+02  3.0300000000000000e+02  3.0300000000000000e+02  3.0300000000000000e+02  3.0300000000000000e+02  3.0300000000000000e+02  3.0300000000000000e+02  3.0300000000000000e+02  3.0300000000000000e+02  3.0300000000000000e+02  3.0300000000000000e+02  3.0300000000000000e+02  3.0300000000000000e+02  3.0300000000000000e+02  3.0300000000000000e+02  3.0300000000000000e+02  3.0300000000000000e+02  3.0300000000000000e+02  3.0300000000000000e+02  3.0300000000000000e+02  3.0300000000000000e+02  3.0300000000000000e+02  3.0300000000000000e+02  3.0300000000000000e+02  3.0300000000000000e+02  3.0300000000000000e+02  3.0300000000000000e+02  3.0300000000000000e+02  3.0300000000000000e+02  3.0300000000000000e+02  3.0300000000000000e+02  3.0300000000000000e+02  3.0300000000000000e+02  3.0300000000000000e+02  3.0300000000000000e+02  3.0300000000000000e+02  3.0300000000000000e+02  3.0300000000000000e+02  3.0300000000000000e+02  3.0300000000000000e+02  3.0300000000000000e+02  3.0300000000000000e+02  3.0300000000000000e+02  3.0300000000000000e+02  3.0300000000000000e+02  3.0300000000000000e+02  3.0300000000000000e+02  3.0300000000000000e+02  3.0300000000000000e+02  3.0300000000000000e+02  3.0300000000000000e+02  3.0300000000000000e+02  3.0300000000000000e+02  3.0300000000000000e+02  3.0300000000000000e+02  3.0300000000000000e+02  3.0300000000000000e+02  3.0300000000000000e+02  3.0300000000000000e+02  3.0300000000000000e+02  3.0300000000000000e+02  3.0300000000000000e+02  3.0300000000000000e+02  3.0300000000000000e+02  3.0300000000000000e+02  3.0300000000000000e+02  3.0300000000000000e+02  3.0300000000000000e+02  3.0300000000000000e+02  3.0300000000000000e+02  3.0300000000000000e+02  3.0300000000000000e+02  3.0300000000000000e+02  3.0300000000000000e+02  3.0300000000000000e+02  3.0300000000000000e+02  3.0300000000000000e+02  3.0300000000000000e+02  3.0300000000000000e+02  3.0300000000000000e+02  3.0300000000000000e+02  3.0300000000000000e+02  1.6447916017934418e+02  9.8857480303348169e+01  6.1593860553934377e+01  3.8846624160914658e+01  2.4444878320217860e+01  1.5138687479073194e+01  9.0231862594094299e+00  5.0117388923576991e+00  2.3535834925137933e+00  5.9751509417779680e-01  -5.5538439839316778e-01  -1.3044930510281736e+00  -1.7824168168905217e+00  -2.0783904757894587e+00  -2.2448012966307935e+00  -2.3345846212265169e+00  -2.3687374689212946e+00  -2.3664056307852128e+00  -2.3409005106851550e+00  -2.3010251330862408e+00  -2.2530571276394991e+00  -2.2007124014217441e+00  -2.1466616908893617e+00  -2.0924141297174126e+00  -2.0395482163636185e+00  -1.9878453657575827e+00  -1.9384751575030792e+00  -1.8913447767784985e+00  -1.8464375952309877e+00  -1.8037909156623071e+00  -1.7634023390747127e+00  -1.7251538457291218e+00  -1.6889416805483741e+00  -1.6546863008542469e+00  -1.6221928201100504e+00  -1.5914246603455684e+00  -1.5621630842555145e+00  -1.5344373253749006e+00  -1.5080623538954745e+00  -1.4829404666986805e+00  -1.4590223179520787e+00  -1.4362045001586592e+00  -1.4144217599632216e+00  -1.3936136277412832e+00  -1.3736987744655842e+00  -1.3546716708876709e+00  -1.3364031186210799e+00  -1.3188810200237024e+00  -1.3020578691955238e+00  -1.2859312640590832e+00  -1.2703987582813026e+00  -1.2554807164621660e+00  -1.2411114887948915e+00  -1.2272837428455130e+00  -1.2139561464627953e+00  -1.2011230631414245e+00  -1.1887548006548929e+00  -1.1767852013890252e+00  -1.1651964484007626e+00  -1.1540047626612706e+00  -1.1431769074617764e+00  -1.1327212562208115e+00  -1.1225500567364550e+00  -1.1127204225164604e+00  -1.1031639379817901e+00  -1.0939375298440683e+00  -1.0849675747260208e+00  -1.0762633166073985e+00  -1.0678119234354353e+00  -1.0595979337612518e+00  -1.0516114491063464e+00  -1.0438560513408257e+00  -1.0362968411112701e+00  -1.0289595002727179e+00  -1.0218175378298875e+00  -1.0148431365646131e+00  -1.0080736599427187e+00  -1.0014767498928616e+00  -9.9504849598884171e-01  -9.8877213322017843e-01  -9.8265037020224166e-01  -9.7668026302431088e-01  -9.7086401118255450e-01  -9.6517910771282556e-01  -9.5963478446997885e-01  -9.5419324035777087e-01  -9.4890027891403605e-01  -9.4370402659539931e-01  -9.3864531408758833e-01  -9.3368711722140552e-01  -9.2885419199197061e-01  -9.2412510673239379e-01  -9.1949470380319365e-01  -9.1496476369981361e-01  -9.1053024245304814e-01  -9.0617756865008092e-01  -9.0193346433313526e-01  -8.9776187726411050e-01  -8.9368874205343496e-01  -8.8969695685093386e-01  -8.8579192004621965e-01  -8.8195284821883102e-01  -8.7818646578592907e-01  -8.7449834341640509e-01  -8.7089566742384739e-01  -8.6734602872424493e-01  -8.6386658720830756e-01  -8.6043669641850928e-01  -8.5708274088185699e-01  -8.5377761492649762e-01  -8.5055321183610266e-01  -8.4737241083558335e-01  -8.4425870003744463e-01  -8.4119053057185034e-01  -8.3817398513495522e-01  -8.3521193910860325e-01  -8.3230213332230163e-01  -8.2944971743090923e-01  -8.2665080589650497e-01  -8.2389040009394088e-01  -8.2118800214433152e-01  -8.1852176669916721e-01  -8.1590639204714488e-01  -8.1332786839117266e-01  -8.1078944733525604e-01  -8.0830177758880639e-01  -8.0584307481308626e-01  -8.0342919265268098e-01  -8.0105800252928572e-01  -7.9872541109518402e-01  -7.9642116827665632e-01  -7.9414567394303315e-01  -7.9190697893959328e-01  -7.8969756689937010e-01  -7.8753004477037103e-01  -7.8538452894628297e-01  -7.8328094735584664e-01  -7.8120151199974319e-01  -7.7916770816562730e-01  -7.7715321000074422e-01  -7.7516424435627851e-01  -7.7320191453105902e-01  -7.7126514912064692e-01  -7.6935665225285765e-01  -7.6748059917871103e-01  -7.6562083493266420e-01  -7.6379068877691536e-01  -7.6198694942369916e-01  -7.6020569917961778e-01  -7.5845373974570773e-01  -7.5672409971379984e-01  -7.5502642789526109e-01  -7.5333871209068870e-01  -7.5168254549714908e-01  -7.5003802938840658e-01  -7.4841920634975068e-01  -7.4681153279512036e-01  -7.4523370993349247e-01  -7.4366666038050211e-01  -7.4212876806640560e-01  -7.4060051895625334e-01  -7.3910046603458635e-01  -7.3761416033670202e-01  -7.3615000118497564e-01  -7.3469928585797784e-01  -7.3327296652732210e-01  -7.3186005982624758e-01  -7.3046756549108871e-01  -7.2908890446529384e-01  -7.2772242901178241e-01  -7.2637376282471355e-01  -7.2503809523861618e-01  -7.2371811869052693e-01  -7.2241874159124864e-01  -7.2112881934867201e-01  -7.1985392480811550e-01  -7.1859276975577147e-01  -7.1734701034840165e-01  -7.1611476743948099e-01  -7.1488951195167427e-01  -7.1368094530354487e-01  -7.1248442786226163e-01  -7.1130460582449817e-01  -7.1013539233302025e-01  -7.0897769823884571e-01  -7.0783082837365430e-01  -7.0669368357686291e-01  -7.0557442127382919e-01  -7.0446578169622565e-01  -7.0336964979265648e-01  -7.0228779410211228e-01  -7.0121090561972999e-01  -7.0014154979616683e-01  -6.9908319493327986e-01  -6.9804000832857216e-01  -6.9700289306097263e-01  -6.9597706249138436e-01  -6.9495565115773628e-01  -6.9394713927055085e-01  -6.9294695382467542e-01  -6.9195616653352499e-01  -6.9097379947724114e-01  -6.9000166827876619e-01  -6.8903981130528780e-01  -6.8808636532325040e-01  -6.8713948102710420e-01  -6.8620582748036674e-01  -6.8527735736386730e-01  -6.8436100114168930e-01  -6.8345067574518348e-01  -6.8255191031665907e-01  -6.8165474383694236e-01  -6.8076593452991818e-01  -6.7988349847959983e-01  -6.7900913709388433e-01  -6.7813967819440257e-01  -6.7727834441455337e-01  -6.7642257113025228e-01  -6.7557533840006467e-01  -6.7473523109819211e-01  -6.7390223319701059e-01  -6.7307728381340293e-01  -6.7225749196183127e-01  -6.7144572113665690e-01  -6.7063377818707792e-01  -6.6983354397166428e-01  -6.6903773465404071e-01  -6.6824616867599862e-01  -6.6745795837723609e-01  -6.6667897014113675e-01  -6.6590079604090180e-01  -6.6513279473509768e-01  -6.6437115278667525e-01  -6.6361713939707678e-01  -6.6286451750473940e-01  -6.6211865536943215e-01  -6.6137835265579015e-01  -6.6064140490267631e-01  -6.5991027500768940e-01  -6.5918095235776764e-01  -6.5845786733615985e-01  -6.5773804072376307e-01  -6.5702813034040086e-01  -6.5631545012717585e-01  -6.5561260562874313e-01  -6.5491060173076565e-01  -6.5421515150638887e-01  -6.5352684285596252e-01  -6.5284025798982015e-01  -4.9756198498219617e-01  -6.3569233948644388e-01  -4.7611989545528161e-01  -6.2807354774616719e-01  -6.4953134794429757e-01  -3.8506307188446937e-01  -2.0436649578082847e-01  -7.0588871174445211e-01  -7.2983348850028051e-01  -5.2919865534061039e-01  5.3063716431533117e-03  1.2805873597941717e-01  -1.4610008756991377e-01  -6.7896994399648869e-01  -6.5149335869845437e-01  -7.2192375124843944e-01  -7.8581339684615636e-01  -8.9053358555560469e-01  -1.0006397622145227e+00  -4.0129603710690459e-01  -5.1711879612381972e-01  -5.9613576808477198e-01  -3.1900441790324924e-01  -6.0206642642591290e-01  -6.5221057456281983e-01  -1.6165408535954376e-01  -3.9401173695299502e-01  1.8191568795768834e-02  -3.4785164778352717e-01  -7.7347586968430559e-01  -7.3815418727448934e-01  1.5896880816188980e-01  3.1732842437291069e-02  2.8905128955132425e-01  1.9769552810413252e-01  -6.6941602090175814e-02  -8.4718668677090336e-01  -7.0802659821468195e-01  -6.4716852105585310e-01  -2.2864903237150336e-02  2.8086884099916287e-01  3.2720025579081174e-01  -1.0981168181146004e+00  -8.7602344513608021e-01  -9.2929515739380153e-01  -8.0273144438858612e-01  3.6802682876137816e-01  2.1987085023099345e-01  3.6174764843906214e-02  -6.4904258871341114e-01  -6.9607183414162044e-01  -6.7111039276392015e-01  3.7865195356149500e-01  3.2362415253094373e-01  -7.5095099159210665e-01  -4.5946676529441610e-01  -6.7759622854594448e-01  -6.5449289175433534e-01  -1.5310426636541327e-01  5.7658667212190384e-01  -1.0325490914903108e+00  -7.6300582248310256e-01  -8.1155777483480374e-01  -8.7885068619218587e-01  4.2178888740715048e-01  6.3808406712672328e-01  4.5012735947163712e-01  -7.1679989457988436e-01  -7.3361214643049522e-01  7.3667022616439648e-01  -9.7427287728021028e-01  -1.1109865375528745e+00  -1.3702891399952319e+00  5.5100657516048590e-01  -6.2688353330224678e-01  -1.5854345762119175e+00  9.3581757112594199e-01  -9.3731276247034323e-01  -5.6542584256800554e-01  3.7229211641061299e-01  1.7943393828604406e-01  -8.6195159383074993e-01  -7.1193082080270120e-01  1.4816308923179864e+00  -6.5548043014024815e-01  -6.0510135796573128e-01  4.9110007816926243e-01  6.4071430073428115e-01  5.8427850064600562e-01  5.9076005883635740e-01  -1.7169103122367702e+00  -1.4607508968847696e+00  -4.4737670360193371e-01  -1.2340707835625588e+00  5.9591471914446881e-01  9.2540390176378340e-01  -8.1942024261078139e-01  -6.9383501651679214e-01  -6.7515001044009715e-01  1.2683666508831941e+00  1.1572174637787103e+00  2.7746558943899062e+00  -8.1589269447600032e-01  -6.9620862996614541e-01  -6.8095386871907759e-01  3.2540981626093211e+00  -7.7909136707582061e-01  2.1836411323898415e+00  -3.4101962949311887e-01  2.3608985877631103e+00  3.3430540433167075e+00  -7.5095665599904382e-01  -6.6905800828902351e-01  -6.6307624397656828e-01  -6.5068770559852351e-01  -7.8643356439639023e-01  -7.6028220498452015e-01  3.5724858762046905e+00  4.2313851134421956e+00  -7.3045826777059797e-01  -7.1299267022431367e-01  -6.1765683182320319e-01  -8.5051238891653369e-01  3.7553492220767954e+00  -1.0736152347375887e+00  4.0445874067643039e+00  5.8754935747611841e+00  5.7847565484953893e+00  1.5486506137189147e+00  4.8105107832897955e+00  4.0773256308614645e+00  -9.3290840338226244e-01  5.6186898868665169e+00  -1.3103507337187175e+00  -5.9108848259553626e-01  5.3484410683428933e+00  -6.5999404979490162e-01  -7.4253815740825635e-01  -7.2585035389538977e-01  1.1406663122148286e+01  8.2328088749725499e+00  7.8211833452867152e+00  8.1469830644782153e+00  -1.1337469266060771e+00  -1.0230935040862432e+00  8.6260308824304648e+00  7.5671753794296324e+00  8.1521854193425032e+00  -8.1001264267121154e-01  1.1734511180729095e+01  1.0516783494446978e+01  -1.1840667142093220e+00  -8.8773401274689145e-01  1.2318220208051907e+01  1.0829984306036048e+01  1.0924491870658846e+01  1.1550552587402457e+01  1.4045660076631414e+01  7.2151904063525665e+00  -1.7891656986965052e+00  -1.8929902402010574e+00  9.5001587221824888e+00  -9.0819132073472342e-01  -6.1810847841693173e-01  -1.0173607705463665e+00  1.5248942818366046e+01  -6.5297035486005728e-01  -1.5440354318277694e+00  -2.1409201812316292e+00  1.4464105638183753e+01  1.4444665513101691e+01  1.3163107854102975e+01  1.6000338402328932e+01  1.2587965341656819e+01  -6.8719442976206646e-01  -1.3707327319513101e+00  9.3878548667948731e+00  -7.0234131632168151e-01  -9.7230842623483615e-01  -6.8848777889458412e-01  -7.0442699362234018e-01  -7.1473740089384563e-01  -8.4371143004589155e-01  -6.7902850374357393e-01  -6.7064873506998635e-01  -1.4177306973181638e+00  -8.7607009405449110e-01  1.8708164041317264e+01  1.4156211982215371e+01  1.8310901775143041e+01  2.0799860448627516e+01  2.2654063599627232e+01  -2.1695473382658763e+00  -1.6702896530016269e+00  -8.3185281713587833e-01  2.5273157574048216e+01  2.2141324783977080e+01  -7.7360039840096817e-01  2.1907292374136720e+01  -6.5761462829171780e-01  2.6562014678413352e+01  2.5687980283554690e+01  -7.9999896928005687e-01  2.6213593899617308e+01  -8.2276710553803700e-01  2.1920928863054264e+01  -5.9260587458679126e-01  -4.4739593356709323e-01  -6.7574002388734022e-01  -7.6836522108751670e-01  -7.9499509996887952e-01  3.3634163087710220e+01  -1.2306390624871126e+00  -9.7619700504574691e-01  3.9654460543749330e+01  -6.9725458736173018e-01  3.4898495511790514e+01  -8.5463646650817049e-01  3.7852446730740382e+01  -6.6449611474421322e-01  3.2366267327786183e+01  4.0402588956331563e+01  -4.1409023077322438e-01  2.8614080525048077e+01  -6.2218548062893320e-01  -7.4281647493953373e-01  -7.2293250306559920e-01  -6.8159593618170056e-01  -1.0809841114486376e+00  -2.5217962261768