<?xml version="1.0"?>
<VTKFile type="UnstructuredGrid"  version="0.1"  >
<UnstructuredGrid>
<Piece  NumberOfPoints="12492" NumberOfCells="24902">
<Points>
<DataArray  type="Float64"  NumberOfComponents="3"  format="ascii">-0.5 0.5 0  0.5 0.5 0  0.5 -0.5 0  -0.5 -0.5 0  -0.25 0 0  0.25 0 0  -0.4500000000001387 0.5 0  -0.4000000000002774 0.5 0  -0.3500000000004161 0.5 0  -0.3000000000005548 0.5 0  -0.2500000000006935 0.5 0  -0.2000000000008322 0.5 0  -0.1500000000009709 0.5 0  -0.1000000000011096 0.5 0  -0.05000000000124821 0.5 0  -1.376121439022882e-12 0.5 0  0.04999999999875171 0.5 0  0.09999999999889042 0.5 0  0.1499999999990291 0.5 0  0.1999999999991677 0.5 0  0.2499999999993064 0.5 0  0.2999999999994452 0.5 0  0.349999999999584 0.5 0  0.3999999999997227 0.5 0  0.4499999999998613 0.5 0  0.5 0.4500000000001387 0  0.5 0.4000000000002774 0  0.5 0.3500000000004161 0  0.5 0.3000000000005548 0  0.5 0.2500000000006935 0  0.5 0.2000000000008322 0  0.5 0.1500000000009709 0  0.5 0.1000000000011096 0  0.5 0.05000000000124821 0  0.5 1.376121439022882e-12 0  0.5 -0.04999999999875171 0  0.5 -0.09999999999889042 0  0.5 -0.1499999999990291 0  0.5 -0.1999999999991677 0  0.5 -0.2499999999993064 0  0.5 -0.2999999999994452 0  0.5 -0.349999999999584 0  0.5 -0.3999999999997227 0  0.5 -0.4499999999998613 0  0.4500000000001387 -0.5 0  0.4000000000002774 -0.5 0  0.3500000000004161 -0.5 0  0.3000000000005548 -0.5 0  0.2500000000006935 -0.5 0  0.2000000000008322 -0.5 0  0.1500000000009709 -0.5 0  0.1000000000011096 -0.5 0  0.05000000000124821 -0.5 0  1.376121439022882e-12 -0.5 0  -0.04999999999875171 -0.5 0  -0.09999999999889042 -0.5 0  -0.1499999999990291 -0.5 0  -0.1999999999991677 -0.5 0  -0.2499999999993064 -0.5 0  -0.2999999999994452 -0.5 0  -0.349999999999584 -0.5 0  -0.3999999999997227 -0.5 0  -0.4499999999998613 -0.5 0  -0.5 -0.4500000000001387 0  -0.5 -0.4000000000002774 0  -0.5 -0.3500000000004161 0  -0.5 -0.3000000000005548 0  -0.5 -0.2500000000006935 0  -0.5 -0.2000000000008322 0  -0.5 -0.1500000000009709 0  -0.5 -0.1000000000011096 0  -0.5 -0.05000000000124821 0  -0.5 -1.376121439022882e-12 0  -0.5 0.04999999999875171 0  -0.5 0.09999999999889042 0  -0.5 0.1499999999990291 0  -0.5 0.1999999999991677 0  -0.5 0.2499999999993064 0  -0.5 0.2999999999994452 0  -0.5 0.349999999999584 0  -0.5 0.3999999999997227 0  -0.5 0.4499999999998613 0  -0.2490000000000028 0 0  -0.2480000000000055 0 0  -0.2470000000000083 0 0  -0.2460000000000111 0 0  -0.2450000000000139 0 0  -0.2440000000000167 0 0  -0.2430000000000195 0 0  -0.2420000000000222 0 0  -0.241000000000025 0 0  -0.2400000000000278 0 0  -0.2390000000000305 0 0  -0.2380000000000333 0 0  -0.2370000000000361 0 0  -0.2360000000000389 0 0  -0.2350000000000417 0 0  -0.2340000000000445 0 0  -0.2330000000000472 0 0  -0.23200000000005 0 0  -0.2310000000000528 0 0  -0.2300000000000555 0 0  -0.2290000000000583 0 0  -0.2280000000000611 0 0  -0.2270000000000639 0 0  -0.2260000000000667 0 0  -0.2250000000000695 0 0  -0.2240000000000722 0 0  -0.223000000000075 0 0  -0.2220000000000778 0 0  -0.2210000000000806 0 0  -0.2200000000000834 0 0  -0.2190000000000861 0 0  -0.2180000000000889 0 0  -0.2170000000000917 0 0  -0.2160000000000944 0 0  -0.2150000000000972 0 0  -0.2140000000001 0 0  -0.2130000000001028 0 0  -0.2120000000001056 0 0  -0.2110000000001084 0 0  -0.2100000000001111 0 0  -0.2090000000001139 0 0  -0.2080000000001167 0 0  -0.2070000000001194 0 0  -0.2060000000001223 0 0  -0.205000000000125 0 0  -0.2040000000001278 0 0  -0.2030000000001306 0 0  -0.2020000000001334 0 0  -0.2010000000001361 0 0  -0.2000000000001389 0 0  -0.1990000000001417 0 0  -0.1980000000001444 0 0  -0.1970000000001473 0 0  -0.19600000000015 0 0  -0.1950000000001528 0 0  -0.1940000000001556 0 0  -0.1930000000001584 0 0  -0.1920000000001612 0 0  -0.1910000000001639 0 0  -0.1900000000001667 0 0  -0.1890000000001695 0 0  -0.1880000000001723 0 0  -0.187000000000175 0 0  -0.1860000000001778 0 0  -0.1850000000001806 0 0  -0.1840000000001834 0 0  -0.1830000000001861 0 0  -0.1820000000001889 0 0  -0.1810000000001917 0 0  -0.1800000000001945 0 0  -0.1790000000001973 0 0  -0.1780000000002 0 0  -0.1770000000002028 0 0  -0.1760000000002056 0 0  -0.1750000000002084 0 0  -0.1740000000002112 0 0  -0.1730000000002139 0 0  -0.1720000000002167 0 0  -0.1710000000002195 0 0  -0.1700000000002223 0 0  -0.169000000000225 0 0  -0.1680000000002278 0 0  -0.1670000000002306 0 0  -0.1660000000002333 0 0  -0.1650000000002361 0 0  -0.1640000000002389 0 0  -0.1630000000002417 0 0  -0.1620000000002445 0 0  -0.1610000000002473 0 0  -0.1600000000002501 0 0  -0.1590000000002528 0 0  -0.1580000000002556 0 0  -0.1570000000002584 0 0  -0.1560000000002612 0 0  -0.1550000000002639 0 0  -0.1540000000002667 0 0  -0.1530000000002695 0 0  -0.1520000000002723 0 0  -0.151000000000275 0 0  -0.1500000000002778 0 0  -0.1490000000002806 0 0  -0.1480000000002834 0 0  -0.1470000000002862 0 0  -0.1460000000002889 0 0  -0.1450000000002917 0 0  -0.1440000000002945 0 0  -0.1430000000002973 0 0  -0.1420000000003001 0 0  -0.1410000000003028 0 0  -0.1400000000003056 0 0  -0.1390000000003084 0 0  -0.1380000000003112 0 0  -0.1370000000003139 0 0  -0.1360000000003167 0 0  -0.1350000000003195 0 0  -0.1340000000003223 0 0  -0.1330000000003251 0 0  -0.1320000000003278 0 0  -0.1310000000003306 0 0  -0.1300000000003334 0 0  -0.1290000000003362 0 0  -0.128000000000339 0 0  -0.1270000000003417 0 0  -0.1260000000003445 0 0  -0.1250000000003473 0 0  -0.1240000000003501 0 0  -0.1230000000003528 0 0  -0.1220000000003556 0 0  -0.1210000000003584 0 0  -0.1200000000003612 0 0  -0.119000000000364 0 0  -0.1180000000003667 0 0  -0.1170000000003695 0 0  -0.1160000000003722 0 0  -0.1150000000003751 0 0  -0.1140000000003778 0 0  -0.1130000000003806 0 0  -0.1120000000003834 0 0  -0.1110000000003862 0 0  -0.1100000000003889 0 0  -0.1090000000003917 0 0  -0.1080000000003945 0 0  -0.1070000000003972 0 0  -0.1060000000004 0 0  -0.1050000000004028 0 0  -0.1040000000004056 0 0  -0.1030000000004083 0 0  -0.1020000000004111 0 0  -0.1010000000004139 0 0  -0.1000000000004166 0 0  -0.09900000000041945 0 0  -0.09800000000042219 0 0  -0.097000000000425 0 0  -0.09600000000042774 0 0  -0.09500000000043055 0 0  -0.09400000000043332 0 0  -0.09300000000043609 0 0  -0.09200000000043887 0 0  -0.09100000000044162 0 0  -0.09000000000044442 0 0  -0.08900000000044717 0 0  -0.08800000000044997 0 0  -0.08700000000045272 0 0  -0.08600000000045552 0 0  -0.08500000000045829 0 0  -0.08400000000046107 0 0  -0.08300000000046384 0 0  -0.08200000000046659 0 0  -0.08100000000046939 0 0  -0.08000000000047214 0 0  -0.07900000000047494 0 0  -0.07800000000047769 0 0  -0.07700000000048049 0 0  -0.07600000000048326 0 0  -0.07500000000048604 0 0  -0.07400000000048881 0 0  -0.07300000000049159 0 0  -0.07200000000049436 0 0  -0.07100000000049711 0 0  -0.07000000000049991 0 0  -0.06900000000050266 0 0  -0.06800000000050546 0 0  -0.06700000000050824 0 0  -0.06600000000051101 0 0  -0.06500000000051379 0 0  -0.06400000000051656 0 0  -0.06300000000051934 0 0  -0.06200000000052208 0 0  -0.06100000000052488 0 0  -0.06000000000052763 0 0  -0.05900000000053043 0 0  -0.05800000000053318 0 0  -0.05700000000053598 0 0  -0.05600000000053876 0 0  -0.05500000000054153 0 0  -0.05400000000054431 0 0  -0.05300000000054705 0 0  -0.05200000000054986 0 0  -0.0510000000005526 0 0  -0.05000000000055541 0 0  -0.04900000000055815 0 0  -0.04800000000056096 0 0  -0.04700000000056373 0 0  -0.0460000000005665 0 0  -0.04500000000056928 0 0  -0.04400000000057203 0 0  -0.04300000000057483 0 0  -0.04200000000057758 0 0  -0.04100000000058038 0 0  -0.04000000000058312 0 0  -0.03900000000058593 0 0  -0.0380000000005887 0 0  -0.03700000000059148 0 0  -0.03600000000059425 0 0  -0.035000000000597 0 0  -0.0340000000005998 0 0  -0.03300000000060255 0 0  -0.03200000000060535 0 0  -0.0310000000006081 0 0  -0.0300000000006109 0 0  -0.02900000000061367 0 0  -0.02800000000061645 0 0  -0.02700000000061922 0 0  -0.026000000000622 0 0  -0.02500000000062477 0 0  -0.02400000000062752 0 0  -0.02300000000063032 0 0  -0.02200000000063307 0 0  -0.02100000000063587 0 0  -0.02000000000063865 0 0  -0.01900000000064142 0 0  -0.0180000000006442 0 0  -0.01700000000064697 0 0  -0.01600000000064974 0 0  -0.01500000000065249 0 0  -0.01400000000065529 0 0  -0.01300000000065804 0 0  -0.01200000000066084 0 0  -0.01100000000066362 0 0  -0.01000000000066639 0 0  -0.009000000000669167 0 0  -0.008000000000671942 0 0  -0.007000000000674717 0 0  -0.006000000000677463 0 0  -0.005000000000680266 0 0  -0.004000000000683013 0 0  -0.003000000000684566 0 0  -0.002000000000685953 0 0  -0.00100000000068734 0 0  -6.887546089018315e-13 0 0  0.0009999999993126618 0 0  0.00199999999931405 0 0  0.002999999999315439 0 0  0.003999999999316939 0 0  0.004999999999319715 0 0  0.005999999999322492 0 0  0.006999999999325268 0 0  0.007999999999327989 0 0  0.008999999999330766 0 0  0.009999999999333598 0 0  0.01099999999933637 0 0  0.01199999999933909 0 0  0.01299999999934193 0 0  0.0139999999993447 0 0  0.01499999999934748 0 0  0.0159999999993502 0 0  0.01699999999935303 0 0  0.01799999999935581 0 0  0.01899999999935853 0 0  0.01999999999936136 0 0  0.02099999999936414 0 0  0.02199999999936691 0 0  0.02299999999936964 0 0  0.02399999999937247 0 0  0.02499999999937524 0 0  0.02599999999937797 0 0  0.0269999999993808 0 0  0.02799999999938357 0 0  0.02899999999938635 0 0  0.02999999999938907 0 0  0.0309999999993919 0 0  0.03199999999939468 0 0  0.03299999999939746 0 0  0.03399999999940023 0 0  0.03499999999940301 0 0  0.03599999999940579 0 0  0.03699999999940851 0 0  0.03799999999941134 0 0  0.03899999999941411 0 0  0.03999999999941689 0 0  0.04099999999941967 0 0  0.04199999999942244 0 0  0.04299999999942522 0 0  0.04399999999942794 0 0  0.04499999999943077 0 0  0.04599999999943355 0 0  0.04699999999943633 0 0  0.0479999999994391 0 0  0.04899999999944188 0 0  0.04999999999944466 0 0  0.05099999999944743 0 0  0.05199999999945021 0 0  0.0529
[...]
<PointData  Scalars="f_41"> 
<DataArray  type="Float64"  Name="f_41"  format="ascii">6.1368021757635519e-02  9.0127045936574682e-02  1.3275369902048309e-01  8.9334595033301337e-02  3.0300000000000000e+02  -2.8058502600627357e+00  6.0019925856200099e-02  5.2924170031595531e-02  4.7833219483051519e-02  4.2980951983639368e-02  3.6944203397516057e-02  2.9496869972812072e-02  2.7910323100430432e-02  2.5403321126524998e-02  2.4330057103301102e-02  2.4608345246219535e-02  2.6479224876996114e-02  2.8842469624848203e-02  3.4186642200399950e-02  4.1735754512137076e-02  5.0665614724362498e-02  5.3797280657403537e-02  7.0397321796300899e-02  7.2858085092981972e-02  8.2567724572671489e-02  9.3560976106302277e-02  9.2969553210097242e-02  1.0687481410399637e-01  1.1981639307110584e-01  1.3217565295869341e-01  1.7421234840884842e-01  1.4843255833820002e-01  5.5883810050936644e-01  -6.8698691087015340e-01  -4.0538801794503474e+00  3.0177002138000368e+00  2.6473990207803643e-03  2.5412970655461370e-01  1.6347427735329775e-01  1.3816550345453707e-01  1.2041332914877508e-01  1.0025061142792932e-01  9.2553338443066360e-02  9.0558441061927661e-02  1.1156497020071751e-01  9.9618985393181841e-02  8.1277871460106732e-02  5.9667752474658345e-02  4.7211375800227405e-02  3.3024611572541579e-02  2.1247845153356450e-02  1.3610072936639770e-02  8.6106163564510074e-03  4.5885105183082562e-03  6.9980210487776001e-03  7.9928559892422646e-03  1.6151396351826476e-02  2.3214999135046439e-02  3.3189199735666496e-02  4.3523450267097454e-02  5.4304116140678101e-02  6.5227055677056986e-02  7.5249418108415705e-02  6.1448820463585942e-02  6.1698221361757587e-02  7.4047807030462529e-02  8.0339922069759789e-02  8.8845356345345600e-02  1.2020089694900851e-01  1.1091556091086358e-01  2.6619871840327158e-01  -2.3025682552668228e-01  3.3287595426450256e-01  -1.8045053252341574e+00  3.6804624598272040e-01  1.5790284124984172e-01  1.2377409037870524e-01  1.0708085357111206e-01  8.3924893406010864e-02  7.4858043749515560e-02  6.8583258194923322e-02  6.3471471366605692e-02  3.0300000000000000e+02  3.0300000000000000e+02  3.0300000000000000e+02  3.0300000000000000e+02  3.0300000000000000e+02  3.0300000000000000e+02  3.0300000000000000e+02  3.0300000000000000e+02  3.0300000000000000e+02  3.0300000000000000e+02  3.0300000000000000e+02  3.0300000000000000e+02  3.0300000000000000e+02  3.0300000000000000e+02  3.0300000000000000e+02  3.0300000000000000e+02  3.0300000000000000e+02  3.0300000000000000e+02  3.0300000000000000e+02  3.0300000000000000e+02  3.0300000000000000e+02  3.0300000000000000e+02  3.0300000000000000e+02  3.0300000000000000e+02  3.0300000000000000e+02  3.0300000000000000e+02  3.0300000000000000e+02  3.0300000000000000e+02  3.0300000000000000e+02  3.0300000000000000e+02  3.0300000000000000e+02  3.0300000000000000e+02  3.0300000000000000e+02  3.0300000000000000e+02  3.0300000000000000e+02  3.0300000000000000e+02  3.0300000000000000e+02  3.0300000000000000e+02  3.0300000000000000e+02  3.0300000000000000e+02  3.0300000000000000e+02  3.0300000000000000e+02  3.0300000000000000e+02  3.0300000000000000e+02  3.0300000000000000e+02  3.0300000000000000e+02  3.0300000000000000e+02  3.0300000000000000e+02  3.0300000000000000e+02  3.0300000000000000e+02  3.0300000000000000e+02  3.0300000000000000e+02  3.0300000000000000e+02  3.0300000000000000e+02  3.0300000000000000e+02  3.0300000000000000e+02  3.0300000000000000e+02  3.0300000000000000e+02  3.0300000000000000e+02  3.0300000000000000e+02  3.0300000000000000e+02  3.0300000000000000e+02  3.0300000000000000e+02  3.0300000000000000e+02  3.0300000000000000e+02  3.0300000000000000e+02  3.0300000000000000e+02  3.0300000000000000e+02  3.0300000000000000e+02  3.0300000000000000e+02  3.0300000000000000e+02  3.0300000000000000e+02  3.0300000000000000e+02  3.0300000000000000e+02  3.0300000000000000e+02  3.0300000000000000e+02  3.0300000000000000e+02  3.0300000000000000e+02  3.0300000000000000e+02  3.0300000000000000e+02  3.0300000000000000e+02  3.0300000000000000e+02  3.0300000000000000e+02  3.0300000000000000e+02  3.0300000000000000e+02  3.0300000000000000e+02  3.0300000000000000e+02  3.0300000000000000e+02  3.0300000000000000e+02  3.0300000000000000e+02  3.0300000000000000e+02  3.0300000000000000e+02  3.0300000000000000e+02  3.0300000000000000e+02  3.0300000000000000e+02  3.0300000000000000e+02  3.0300000000000000e+02  3.0300000000000000e+02  3.0300000000000000e+02  3.0300000000000000e+02  3.0300000000000000e+02  3.0300000000000000e+02  3.0300000000000000e+02  3.0300000000000000e+02  3.0300000000000000e+02  3.0300000000000000e+02  3.0300000000000000e+02  3.0300000000000000e+02  3.0300000000000000e+02  3.0300000000000000e+02  3.0300000000000000e+02  3.0300000000000000e+02  3.0300000000000000e+02  3.0300000000000000e+02  3.0300000000000000e+02  3.0300000000000000e+02  3.0300000000000000e+02  3.0300000000000000e+02  3.0300000000000000e+02  3.0300000000000000e+02  3.0300000000000000e+02  3.0300000000000000e+02  3.0300000000000000e+02  3.0300000000000000e+02  3.0300000000000000e+02  3.0300000000000000e+02  3.0300000000000000e+02  3.0300000000000000e+02  3.0300000000000000e+02  3.0300000000000000e+02  3.0300000000000000e+02  3.0300000000000000e+02  3.0300000000000000e+02  3.0300000000000000e+02  3.0300000000000000e+02  3.0300000000000000e+02  3.0300000000000000e+02  3.0300000000000000e+02  3.0300000000000000e+02  3.0300000000000000e+02  3.0300000000000000e+02  3.0300000000000000e+02  3.0300000000000000e+02  3.0300000000000000e+02  3.0300000000000000e+02  3.0300000000000000e+02  3.0300000000000000e+02  3.0300000000000000e+02  3.0300000000000000e+02  3.0300000000000000e+02  3.0300000000000000e+02  3.0300000000000000e+02  3.0300000000000000e+02  3.0300000000000000e+02  3.0300000000000000e+02  3.0300000000000000e+02  3.0300000000000000e+02  3.0300000000000000e+02  3.0300000000000000e+02  3.0300000000000000e+02  3.0300000000000000e+02  3.0300000000000000e+02  3.0300000000000000e+02  3.0300000000000000e+02  3.0300000000000000e+02  3.0300000000000000e+02  3.0300000000000000e+02  3.0300000000000000e+02  3.0300000000000000e+02  3.0300000000000000e+02  3.0300000000000000e+02  3.0300000000000000e+02  3.0300000000000000e+02  3.0300000000000000e+02  3.0300000000000000e+02  3.0300000000000000e+02  3.0300000000000000e+02  3.0300000000000000e+02  3.0300000000000000e+02  3.0300000000000000e+02  3.0300000000000000e+02  3.0300000000000000e+02  3.0300000000000000e+02  3.0300000000000000e+02  3.0300000000000000e+02  3.0300000000000000e+02  3.0300000000000000e+02  3.0300000000000000e+02  3.0300000000000000e+02  3.0300000000000000e+02  3.0300000000000000e+02  3.0300000000000000e+02  3.0300000000000000e+02  3.0300000000000000e+02  3.0300000000000000e+02  3.0300000000000000e+02  3.0300000000000000e+02  3.0300000000000000e+02  3.0300000000000000e+02  3.0300000000000000e+02  3.0300000000000000e+02  3.0300000000000000e+02  3.0300000000000000e+02  3.0300000000000000e+02  3.0300000000000000e+02  3.0300000000000000e+02  3.0300000000000000e+02  3.0300000000000000e+02  3.0300000000000000e+02  3.0300000000000000e+02  3.0300000000000000e+02  3.0300000000000000e+02  3.0300000000000000e+02  3.0300000000000000e+02  3.0300000000000000e+02  3.0300000000000000e+02  3.0300000000000000e+02  3.0300000000000000e+02  3.0300000000000000e+02  3.0300000000000000e+02  3.0300000000000000e+02  3.0300000000000000e+02  3.0300000000000000e+02  3.0300000000000000e+02  3.0300000000000000e+02  3.0300000000000000e+02  3.0300000000000000e+02  3.0300000000000000e+02  3.0300000000000000e+02  3.0300000000000000e+02  3.0300000000000000e+02  3.0300000000000000e+02  3.0300000000000000e+02  3.0300000000000000e+02  3.0300000000000000e+02  3.0300000000000000e+02  3.0300000000000000e+02  3.0300000000000000e+02  3.0300000000000000e+02  3.0300000000000000e+02  3.0300000000000000e+02  3.0300000000000000e+02  3.0300000000000000e+02  3.0300000000000000e+02  3.0300000000000000e+02  3.0300000000000000e+02  3.0300000000000000e+02  3.0300000000000000e+02  3.0300000000000000e+02  3.0300000000000000e+02  1.6769374492504093e+02  1.0389062147447186e+02  6.6287540576645668e+01  4.3973921410679388e+01  2.8405156784810547e+01  1.8982396521765466e+01  1.3120002448642222e+01  8.4085022382620007e+00  6.1045559887744218e+00  3.7812337594397634e+00  3.2259951379641225e+00  1.7863160153739990e+00  1.6198881211769343e+00  4.9803969704399359e-01  -6.7795102693173770e-01  -7.0839265168894952e-02  -7.8903291904505535e-01  -3.0547808425968787e-01  -8.2009006587085775e-01  -3.8674578170631163e-02  -4.9298760623246951e-01  -1.6891308306742397e-01  -1.1697332070601021e+00  -8.6915843259848347e-01  -1.4725584343677167e+00  -7.2681842375632655e-01  -4.2203252607422032e-01  -4.7256542948155211e-01  -6.1617416619649890e-01  -5.8725599994571809e-01  -3.0438375046186772e-01  -7.4554148321709213e-01  -3.6721280018841790e-01  -7.5656748165927556e-01  -6.6832021013584053e-01  -8.8613434753687281e-01  -1.1044642965504627e+00  -3.6612087587780456e-01  -9.8195671529855988e-01  -1.6595965918302391e-01  -3.1275023721215378e-01  -1.4159610031110335e+00  -1.3620315964723690e+00  -6.0285100271680658e-01  -1.3260940922635396e+00  -8.5655514332450933e-01  -1.3439350470641733e+00  -7.2226553821181405e-01  -1.5940447600586543e+00  -1.4438570737285692e+00  -1.0898450951735383e+00  -1.4148283290803583e+00  -1.4180440476044907e+00  -3.3314525052286270e-01  -9.5749471955434762e-02  -3.7113241428154482e-02  -1.0307863127697131e-01  -6.4601678548677499e-01  -6.6711100415966851e-01  -1.0574383487649366e+00  -4.9192737192489022e-01  3.8427573303447377e-01  -3.4722963176914184e-01  -1.2761601621807295e+00  -1.2121302456211787e+00  -4.8655426705413585e-01  -1.2130461670748700e+00  -5.3898583015406487e-01  -7.4306286338425453e-01  -1.5906183743063789e+00  -2.3435903531242865e+00  -1.5556664365136288e+00  -8.4127259841537916e-01  -1.3329557633805433e+00  -7.5713090568354446e-01  -1.0417174930403577e+00  -3.5592602294629194e-01  -1.5229690046746551e+00  -2.2189182705806823e+00  -1.5272732723988873e+00  -1.2702078003570618e+00  -1.2722366304492281e+00  -1.2183943607800436e+00  -9.1524396746841474e-01  -4.8701441066528534e-01  -1.1857861366226246e+00  -4.8504427762134683e-01  -1.0781379288185924e+00  -7.0134491768290674e-01  -1.7610949516837979e+00  -1.3084554592414430e+00  -2.2767499720596711e+00  -1.8293806763832090e+00  -5.1899350778427689e-01  -5.9910095168493138e-01  -1.2455851680785053e+00  -5.4483819126708177e-01  -1.7566567691154433e+00  -1.7607075377525350e+00  -1.5649428153163205e+00  -1.4660186484476851e+00  -7.3421967550733502e-01  -6.0363396024821503e-01  -1.6329527052534651e+00  -1.2117434671803176e+00  -1.8201199134746955e+00  -9.4858518754747900e-01  -1.3982124604435064e+00  -9.4072257965903094e-01  -1.8796413115457349e+00  -1.3144781133720498e+00  -1.9720594892473904e+00  -1.7190886239611305e+00  -1.9198922068013675e+00  -1.7588529065604941e+00  -1.9060724282675114e+00  -1.1597123397948172e+00  -8.8857075041805644e-01  -1.5440761645106242e+00  -2.1447527584723129e+00  -1.3818994984744926e+00  -1.7038318784274356e+00  -1.6267494803265241e+00  -1.9465366929571006e+00  -2.1782646429622678e+00  -1.2644505843902412e+00  -1.5476420548969005e+00  -1.0462457871414519e+00  -6.3857510098507075e-01  -1.3222248662193301e+00  -2.2448604296140084e+00  -2.9942324881100864e+00  -2.0225746610008479e+00  -2.1931416310694418e+00  -1.5186038691886150e+00  -2.2241525871081635e+00  -1.4827280050908445e+00  -1.9991330599180295e+00  -1.1902720039255537e+00  -1.7309249554673038e+00  -2.9136378189260941e+00  -3.2888939649061841e+00  -2.2762262654099659e+00  -1.8061151399077708e+00  -1.2305304389206195e+00  -1.2100386941681571e+00  -2.3406057347010618e+00  -1.6343871438809701e+00  -2.2231238951658852e+00  -1.7650268944775691e+00  -2.5181609383739278e+00  -2.0802723298659518e+00  -2.7028647745039400e+00  -1.9147413065078727e+00  -2.6402244882493608e+00  -2.1880777924523693e+00  -2.7238343196385464e+00  -1.8937810675942106e+00  -2.4655543362925831e+00  -2.0875554305904287e+00  -3.0683153122492843e+00  -2.6194600219739228e+00  -3.0318227655675303e+00  -2.2157348145488780e+00  -2.6872023558366238e+00  -2.1717376313130852e+00  -2.8499561954469868e+00  -2.1953951705105514e+00  -2.7317962015092525e+00  -2.5283231811536879e+00  -1.7474531282153707e+00  -3.2375495139473474e+00  -2.5118214924838145e+00  -1.6579873683437769e+00  -2.2641215919503734e+00  -3.4264471427236844e+00  -2.6419619983459346e+00  -3.0220798792893322e+00  -2.4041215983145729e+00  -3.1424128139124137e+00  -2.5414208014203301e+00  -3.2391745988731082e+00  -2.6524078945804006e+00  -3.1139717541241545e+00  -2.4453333945875602e+00  -3.6617865830119336e+00  -4.0202595354715367e+00  -3.1831999098805590e+00  -2.5977502010806552e+00  -3.9284885575328916e+00  -4.0884248708170148e+00  -3.1916528138739446e+00  -3.2990373553913641e+00  -2.8934677311948240e+00  -2.3812546572579376e+00  -3.4830093935407138e+00  -3.3488214515841395e+00  -3.7647068652135101e+00  -3.1069206348822687e+00  -3.8410357788129099e+00  -3.4152458047260255e+00  -3.9356611530053942e+00  -3.1387030176906525e+00  -3.5520957903140662e+00  -3.0176142280172580e+00  -3.7287763718320761e+00  -3.1165824229257861e+00  -3.9928301726551778e+00  -3.4415566830903863e+00  -3.9466026783717494e+00  -2.9217969213220090e+00  -2.9684090116299382e+00  -4.1778072692673254e+00  -4.6858883491848333e+00  -5.1679259667700350e+00  -4.6272540827092135e+00  -4.2652657807388881e+00  -3.5043855137931756e+00  -4.0907366066897835e+00  -3.4717184502080030e+00  -4.1456707623966542e+00  -3.7159287463528958e+00  -4.8557820886609182e+00  -4.4266838948004583e+00  -4.8548046733689239e+00  -4.0492177287765783e+00  -4.5656651629179335e+00  -4.2070903417914947e+00  -4.8341594930374026e+00  -3.9301815459923839e+00  -4.4397204175691600e+00  -4.3251120574953186e+00  -5.5633990120224235e+00  -5.2552302300984826e+00  -6.1938804720073053e+00  -5.9654377062521196e+00  -7.1503076291388545e+00  -7.5742261499970684e+00  -9.4747918180492654e+00  -1.3524424301406691e+01  -1.3947279505492732e+01  -9.1507725694488808e+00  -7.6463072055033310e+00  -6.0710581430015909e+00  -6.0824890202351636e+00  -4.9223998574874921e+00  -5.2478133998405356e+00  -4.3678504574503698e+00  -4.7648456981669876e+00  -1.0463870002905180e-03  2.3899170047388629e-02  1.9066426442830946e-02  -1.4069776656027671e-02  -1.3843853415761586e-02  -2.3188997141823042e-02  -1.5106915672415585e-02  -3.3221310086219993e-02  -3.2948781948432669e-02  -3.5617916240040029e-02  -3.4042250642475666e-02  -3.3881728172038807e-02  -2.7299797208108961e-02  -4.1156339002878795e-02  -4.9130451532915946e-02  -4.7429370287412786e-02  -4.4603874052557398e-02  -4.3456587314822423e-02  -4.1501344319558757e-02  1.2511156400247190e-02  7.2850139434467963e-03  1.7641269201395367e-02  -1.0483608441336492e-02  -1.8045839962511634e-02  -1.9369670567272106e-02  -1.1422093123567291e-02  -1.1271895764070113e-02  -2.4941081741859238e-02  -2.7513203613820335e-02  -3.2903573381922756e-02  -3.3258914476386299e-02  -2.8200794282031164e-02  -2.6496115574729775e-02  -3.3966638418499014e-02  -3.4535289615100356e-02  -3.6009723829656462e-02  -3.7540295396414930e-02  -4.0119133861252709e-02  -2.9336219290560760e-02  -3.9953105046803231e-02  -3.7812341647478147e-02  -4.0056284668820392e-02  -4.0595221575360892e-02  -4.0385346404690055e-02  -4.0017341983712311e-02  -4.3915849808825076e-02  -3.7441532892087230e-02  -4.0568182229528488e-02  -4.1857829226577117e-02  -6.6902563564028104e-04  -5.3536295112092104e-02  -5.4045171150801756e-02  -2.8938138337886891e-02  -3.1767873188650028e-02  -4.7273854482626144e-02  -2.2596265394114003e-02  -4.4266406346033405e-02  -4.3101495402032515e-02  6.3808880007370769e-02  2.8765888780457688e-01  -4.3884750166470921e-02  -5.1856099364394170e-02  -5.2208089683955475e-02  -4.9280876491265758e-02  -2.2395835079674375e-03  1.9618699199917553e-01  1.0734567247518979e-01  -5.1067127644884282e-02  -5.7220410206483531e-02  2.5474113874661941e-01  -4.9009072726225913e-02  -4.5938979987698469e-02  -4.5679954562389088e-02  3.8979400136099684e-01  9.5467935942245008e-02  -1.7944799471099934e-02  5.0841620500910045e-01  -4.7349573686011802e-02  -3.9155311754717897e-02  3.0570966507601851e-02  8.3369657830049682e-02  -5.0166303688967961e-02  -6.4558897840581594e-02  9.8664905153166149e-01  -6.0298250716151844e-02  -3.9220971524306016e-02  3.9872257053177873e-02  1.9401683095068828e-01  2.0807243024078934e-01  1.3563952242076177e-01  -1.6705036704498934e-02  -4.5217541149877291e-02  1.1142458729236997e+00  -4.9459216287572348e-02  3.9855415916446357e-01  4.4144854012162349e-01  3.8897201085275396e-01  -5.5553476189660840e-02  -5.7811831738259635e-02  7.8255843699680283e-01  6.5264253080847456e-01  2.2837693937570216e+00  -5.7742385528826282e-02  -8.2767003671766051e-02  -7.9123829236626989e-02  2.7649752710730366e+00  -6.3664449755306163e-02  1.7023480116373109e+00  3.6805664540665439e-01  1.8734402243804469e+00  2.8870412835733354e+00  -7.3002393729627746e-02  -9.7337288148205373e-02  -7.4845556772011365e-02  -5.5299392151073969e-02  -6.8849232402679345e-02  -7.6452060861670945e-02  3.1027232523434090e+00  3.7924255626728831e+00  -8.3964948813659152e-02  -8.9545574980988571e-02  -2.2076657845639728e-02  -6.3471858759580765e-02  3.2941278110806156e+00  -5.6044529522541291e-02  4.1558741922467819e+00  6.3163569862849744e+00  5.6121798558847420e+00  1.7516629108837694e+00  4.3932388188501630e+00  3.7549404396867461e+00  -6.4442775387514001e-02  5.2078942055915745e+00  -5.7718453184290773e-02  1.5634215942990335e+00  4.8718396898747720e+00  -2.1113279848067515e-01  -1.2572789937889192e-01  -1.0867864034902470e-01  1.1018623379177487e+01  7.7498484902835614e+00  7.3587782201926109e+00  7.6962176809846516e+00  -6.1300540267078436e-02  -6.6111443190623287e-02  8.1948561921036447e+00  7.1624788844579124e+00  7.6935268480520582e+00  -9.7953296280122282e-02  1.1296405975427524e+01  1.1602582260388635e+01  -6.6103396125555741e-02  -8.7163035438188777e-02  1.1881347544838244e+01  1.0440593731576197e+01  1.0515557046203035e+01  1.1209547375469995e+01  1.3693208190341931e+01  7.0256468611417020e+00  -5.5804440132677026e-02  -5.0351476151231131e-02  9.8960583550372352e+00  -7.4364350738152230e-02  2.0709175789575666e-03  -9.2674101368509759e-02  1.5121508852310150e+01  -3.5361941124430801e-01  -7.5878069358045724e-02  3.0214310840638470e-01  1.4257598506867319e+01  1.4244369661774389e+01  1.2794684077786334e+01  1.5606040884716968e+01  1.2172577667487813e+01  -1.2688424728045555e-01  1.3242287284153229e+00  8.9042028748527784e+00  -1.7774479167247401e-01  -1.0732698132029024e-01  -2.0093769548441751e-01  -1.9527642185024405e-01  -2.1554600649065991e-01  -9.9348616900472905e-02  -2.3003943550432659e-01  -2.6873882683002120e-01  -7.9930800810251154e-02  -1.2884745867293548e-01  1.8485581523803198e+01  1.3819861256401893e+01  1.7895723597995548e+01  2.0502230702608053e+01  2.2343435777547313e+01  3.8065922746559115e-02  -8.7481468657650857e-02  -1.4870923266653507e-01  2.4886473592240346e+01  2.1779775478253597e+01  -1.6713722663253658e-01  2.1702058892844548e+01  -2.7943144820176347e-01  2.6158252459464634e+01  2.5555174459299209e+01  -1.1946807944764384e-01  2.6079676805091928e+01  -1.7908261678616999e-01  2.3542230889272027e+01  9.1686013954561836e-03  1.0836383696840824e-02  -2.6728254774385352e-01  -1.6542293019983387e-01  -1.9682802347975803e-01  3.3471035924276606e+01  -1.1203984173024016e-01  -1.6109639952554161e-01  3.9479381526391776e+01  -3.6358594006902756e-01  3.4727883204075390e+01  -1.8737212751891050e-01  3.7736441544839884e+01  -5.2687025038607771e-01  3.1984522489458779e+01  4.0233780559967016e+01  1.2815329218959504e-02  2.8699796792531441e+01  6.3226571378730079e-01  -2.3373414026970260e-01  -2.5148160854106422e-01  -4.2356620281122748e-01  -1.3046161776382972e-01  -3.2328197897867166e-02  3.3575288829741730e+01  2.8086490168221605e+01  -2.8859839064599163e-01  -2.