<?xml version="1.0"?>
<VTKFile type="UnstructuredGrid"  version="0.1"  >
<UnstructuredGrid>
<Piece  NumberOfPoints="12492" NumberOfCells="24902">
<Points>
<DataArray  type="Float64"  NumberOfComponents="3"  format="ascii">-0.5 0.5 0  0.5 0.5 0  0.5 -0.5 0  -0.5 -0.5 0  -0.25 0 0  0.25 0 0  -0.4500000000001387 0.5 0  -0.4000000000002774 0.5 0  -0.3500000000004161 0.5 0  -0.3000000000005548 0.5 0  -0.2500000000006935 0.5 0  -0.2000000000008322 0.5 0  -0.1500000000009709 0.5 0  -0.1000000000011096 0.5 0  -0.05000000000124821 0.5 0  -1.376121439022882e-12 0.5 0  0.04999999999875171 0.5 0  0.09999999999889042 0.5 0  0.1499999999990291 0.5 0  0.1999999999991677 0.5 0  0.2499999999993064 0.5 0  0.2999999999994452 0.5 0  0.349999999999584 0.5 0  0.3999999999997227 0.5 0  0.4499999999998613 0.5 0  0.5 0.4500000000001387 0  0.5 0.4000000000002774 0  0.5 0.3500000000004161 0  0.5 0.3000000000005548 0  0.5 0.2500000000006935 0  0.5 0.2000000000008322 0  0.5 0.1500000000009709 0  0.5 0.1000000000011096 0  0.5 0.05000000000124821 0  0.5 1.376121439022882e-12 0  0.5 -0.04999999999875171 0  0.5 -0.09999999999889042 0  0.5 -0.1499999999990291 0  0.5 -0.1999999999991677 0  0.5 -0.2499999999993064 0  0.5 -0.2999999999994452 0  0.5 -0.349999999999584 0  0.5 -0.3999999999997227 0  0.5 -0.4499999999998613 0  0.4500000000001387 -0.5 0  0.4000000000002774 -0.5 0  0.3500000000004161 -0.5 0  0.3000000000005548 -0.5 0  0.2500000000006935 -0.5 0  0.2000000000008322 -0.5 0  0.1500000000009709 -0.5 0  0.1000000000011096 -0.5 0  0.05000000000124821 -0.5 0  1.376121439022882e-12 -0.5 0  -0.04999999999875171 -0.5 0  -0.09999999999889042 -0.5 0  -0.1499999999990291 -0.5 0  -0.1999999999991677 -0.5 0  -0.2499999999993064 -0.5 0  -0.2999999999994452 -0.5 0  -0.349999999999584 -0.5 0  -0.3999999999997227 -0.5 0  -0.4499999999998613 -0.5 0  -0.5 -0.4500000000001387 0  -0.5 -0.4000000000002774 0  -0.5 -0.3500000000004161 0  -0.5 -0.3000000000005548 0  -0.5 -0.2500000000006935 0  -0.5 -0.2000000000008322 0  -0.5 -0.1500000000009709 0  -0.5 -0.1000000000011096 0  -0.5 -0.05000000000124821 0  -0.5 -1.376121439022882e-12 0  -0.5 0.04999999999875171 0  -0.5 0.09999999999889042 0  -0.5 0.1499999999990291 0  -0.5 0.1999999999991677 0  -0.5 0.2499999999993064 0  -0.5 0.2999999999994452 0  -0.5 0.349999999999584 0  -0.5 0.3999999999997227 0  -0.5 0.4499999999998613 0  -0.2490000000000028 0 0  -0.2480000000000055 0 0  -0.2470000000000083 0 0  -0.2460000000000111 0 0  -0.2450000000000139 0 0  -0.2440000000000167 0 0  -0.2430000000000195 0 0  -0.2420000000000222 0 0  -0.241000000000025 0 0  -0.2400000000000278 0 0  -0.2390000000000305 0 0  -0.2380000000000333 0 0  -0.2370000000000361 0 0  -0.2360000000000389 0 0  -0.2350000000000417 0 0  -0.2340000000000445 0 0  -0.2330000000000472 0 0  -0.23200000000005 0 0  -0.2310000000000528 0 0  -0.2300000000000555 0 0  -0.2290000000000583 0 0  -0.2280000000000611 0 0  -0.2270000000000639 0 0  -0.2260000000000667 0 0  -0.2250000000000695 0 0  -0.2240000000000722 0 0  -0.223000000000075 0 0  -0.2220000000000778 0 0  -0.2210000000000806 0 0  -0.2200000000000834 0 0  -0.2190000000000861 0 0  -0.2180000000000889 0 0  -0.2170000000000917 0 0  -0.2160000000000944 0 0  -0.2150000000000972 0 0  -0.2140000000001 0 0  -0.2130000000001028 0 0  -0.2120000000001056 0 0  -0.2110000000001084 0 0  -0.2100000000001111 0 0  -0.2090000000001139 0 0  -0.2080000000001167 0 0  -0.2070000000001194 0 0  -0.2060000000001223 0 0  -0.205000000000125 0 0  -0.2040000000001278 0 0  -0.2030000000001306 0 0  -0.2020000000001334 0 0  -0.2010000000001361 0 0  -0.2000000000001389 0 0  -0.1990000000001417 0 0  -0.1980000000001444 0 0  -0.1970000000001473 0 0  -0.19600000000015 0 0  -0.1950000000001528 0 0  -0.1940000000001556 0 0  -0.1930000000001584 0 0  -0.1920000000001612 0 0  -0.1910000000001639 0 0  -0.1900000000001667 0 0  -0.1890000000001695 0 0  -0.1880000000001723 0 0  -0.187000000000175 0 0  -0.1860000000001778 0 0  -0.1850000000001806 0 0  -0.1840000000001834 0 0  -0.1830000000001861 0 0  -0.1820000000001889 0 0  -0.1810000000001917 0 0  -0.1800000000001945 0 0  -0.1790000000001973 0 0  -0.1780000000002 0 0  -0.1770000000002028 0 0  -0.1760000000002056 0 0  -0.1750000000002084 0 0  -0.1740000000002112 0 0  -0.1730000000002139 0 0  -0.1720000000002167 0 0  -0.1710000000002195 0 0  -0.1700000000002223 0 0  -0.169000000000225 0 0  -0.1680000000002278 0 0  -0.1670000000002306 0 0  -0.1660000000002333 0 0  -0.1650000000002361 0 0  -0.1640000000002389 0 0  -0.1630000000002417 0 0  -0.1620000000002445 0 0  -0.1610000000002473 0 0  -0.1600000000002501 0 0  -0.1590000000002528 0 0  -0.1580000000002556 0 0  -0.1570000000002584 0 0  -0.1560000000002612 0 0  -0.1550000000002639 0 0  -0.1540000000002667 0 0  -0.1530000000002695 0 0  -0.1520000000002723 0 0  -0.151000000000275 0 0  -0.1500000000002778 0 0  -0.1490000000002806 0 0  -0.1480000000002834 0 0  -0.1470000000002862 0 0  -0.1460000000002889 0 0  -0.1450000000002917 0 0  -0.1440000000002945 0 0  -0.1430000000002973 0 0  -0.1420000000003001 0 0  -0.1410000000003028 0 0  -0.1400000000003056 0 0  -0.1390000000003084 0 0  -0.1380000000003112 0 0  -0.1370000000003139 0 0  -0.1360000000003167 0 0  -0.1350000000003195 0 0  -0.1340000000003223 0 0  -0.1330000000003251 0 0  -0.1320000000003278 0 0  -0.1310000000003306 0 0  -0.1300000000003334 0 0  -0.1290000000003362 0 0  -0.128000000000339 0 0  -0.1270000000003417 0 0  -0.1260000000003445 0 0  -0.1250000000003473 0 0  -0.1240000000003501 0 0  -0.1230000000003528 0 0  -0.1220000000003556 0 0  -0.1210000000003584 0 0  -0.1200000000003612 0 0  -0.119000000000364 0 0  -0.1180000000003667 0 0  -0.1170000000003695 0 0  -0.1160000000003722 0 0  -0.1150000000003751 0 0  -0.1140000000003778 0 0  -0.1130000000003806 0 0  -0.1120000000003834 0 0  -0.1110000000003862 0 0  -0.1100000000003889 0 0  -0.1090000000003917 0 0  -0.1080000000003945 0 0  -0.1070000000003972 0 0  -0.1060000000004 0 0  -0.1050000000004028 0 0  -0.1040000000004056 0 0  -0.1030000000004083 0 0  -0.1020000000004111 0 0  -0.1010000000004139 0 0  -0.1000000000004166 0 0  -0.09900000000041945 0 0  -0.09800000000042219 0 0  -0.097000000000425 0 0  -0.09600000000042774 0 0  -0.09500000000043055 0 0  -0.09400000000043332 0 0  -0.09300000000043609 0 0  -0.09200000000043887 0 0  -0.09100000000044162 0 0  -0.09000000000044442 0 0  -0.08900000000044717 0 0  -0.08800000000044997 0 0  -0.08700000000045272 0 0  -0.08600000000045552 0 0  -0.08500000000045829 0 0  -0.08400000000046107 0 0  -0.08300000000046384 0 0  -0.08200000000046659 0 0  -0.08100000000046939 0 0  -0.08000000000047214 0 0  -0.07900000000047494 0 0  -0.07800000000047769 0 0  -0.07700000000048049 0 0  -0.07600000000048326 0 0  -0.07500000000048604 0 0  -0.07400000000048881 0 0  -0.07300000000049159 0 0  -0.07200000000049436 0 0  -0.07100000000049711 0 0  -0.07000000000049991 0 0  -0.06900000000050266 0 0  -0.06800000000050546 0 0  -0.06700000000050824 0 0  -0.06600000000051101 0 0  -0.06500000000051379 0 0  -0.06400000000051656 0 0  -0.06300000000051934 0 0  -0.06200000000052208 0 0  -0.06100000000052488 0 0  -0.06000000000052763 0 0  -0.05900000000053043 0 0  -0.05800000000053318 0 0  -0.05700000000053598 0 0  -0.05600000000053876 0 0  -0.05500000000054153 0 0  -0.05400000000054431 0 0  -0.05300000000054705 0 0  -0.05200000000054986 0 0  -0.0510000000005526 0 0  -0.05000000000055541 0 0  -0.04900000000055815 0 0  -0.04800000000056096 0 0  -0.04700000000056373 0 0  -0.0460000000005665 0 0  -0.04500000000056928 0 0  -0.04400000000057203 0 0  -0.04300000000057483 0 0  -0.04200000000057758 0 0  -0.04100000000058038 0 0  -0.04000000000058312 0 0  -0.03900000000058593 0 0  -0.0380000000005887 0 0  -0.03700000000059148 0 0  -0.03600000000059425 0 0  -0.035000000000597 0 0  -0.0340000000005998 0 0  -0.03300000000060255 0 0  -0.03200000000060535 0 0  -0.0310000000006081 0 0  -0.0300000000006109 0 0  -0.02900000000061367 0 0  -0.02800000000061645 0 0  -0.02700000000061922 0 0  -0.026000000000622 0 0  -0.02500000000062477 0 0  -0.02400000000062752 0 0  -0.02300000000063032 0 0  -0.02200000000063307 0 0  -0.02100000000063587 0 0  -0.02000000000063865 0 0  -0.01900000000064142 0 0  -0.0180000000006442 0 0  -0.01700000000064697 0 0  -0.01600000000064974 0 0  -0.01500000000065249 0 0  -0.01400000000065529 0 0  -0.01300000000065804 0 0  -0.01200000000066084 0 0  -0.01100000000066362 0 0  -0.01000000000066639 0 0  -0.009000000000669167 0 0  -0.008000000000671942 0 0  -0.007000000000674717 0 0  -0.006000000000677463 0 0  -0.005000000000680266 0 0  -0.004000000000683013 0 0  -0.003000000000684566 0 0  -0.002000000000685953 0 0  -0.00100000000068734 0 0  -6.887546089018315e-13 0 0  0.0009999999993126618 0 0  0.00199999999931405 0 0  0.002999999999315439 0 0  0.003999999999316939 0 0  0.004999999999319715 0 0  0.005999999999322492 0 0  0.006999999999325268 0 0  0.007999999999327989 0 0  0.008999999999330766 0 0  0.009999999999333598 0 0  0.01099999999933637 0 0  0.01199999999933909 0 0  0.01299999999934193 0 0  0.0139999999993447 0 0  0.01499999999934748 0 0  0.0159999999993502 0 0  0.01699999999935303 0 0  0.01799999999935581 0 0  0.01899999999935853 0 0  0.01999999999936136 0 0  0.02099999999936414 0 0  0.02199999999936691 0 0  0.02299999999936964 0 0  0.02399999999937247 0 0  0.02499999999937524 0 0  0.02599999999937797 0 0  0.0269999999993808 0 0  0.02799999999938357 0 0  0.02899999999938635 0 0  0.02999999999938907 0 0  0.0309999999993919 0 0  0.03199999999939468 0 0  0.03299999999939746 0 0  0.03399999999940023 0 0  0.03499999999940301 0 0  0.03599999999940579 0 0  0.03699999999940851 0 0  0.03799999999941134 0 0  0.03899999999941411 0 0  0.03999999999941689 0 0  0.04099999999941967 0 0  0.04199999999942244 0 0  0.04299999999942522 0 0  0.04399999999942794 0 0  0.04499999999943077 0 0  0.04599999999943355 0 0  0.04699999999943633 0 0  0.0479999999994391 0 0  0.04899999999944188 0 0  0.04999999999944466 0 0  0.05099999999944743 0 0  0.05199999999945021 0 0  0.0529
[...]
<PointData  Scalars="f_41"> 
<DataArray  type="Float64"  Name="f_41"  format="ascii">7.8623585935847975e-03  -8.5354064945862475e-03  -4.0087009698721948e-02  1.9564826029983082e-03  3.0300000000000000e+02  -7.1489984059868788e-03  8.4777877655004968e-03  1.1074280555166245e-02  1.2463230681345833e-02  1.3957463179383655e-02  1.5050825171156535e-02  1.6109456082994647e-02  1.6499950556383789e-02  1.6853524820438771e-02  1.7020575595665176e-02  1.6875753159185741e-02  1.6467227773315132e-02  1.5766856695100299e-02  1.3443881202170957e-02  1.0242426527555607e-02  7.2073813143038942e-03  5.0493541080478960e-03  7.6393860089991319e-04  -1.5489569872252343e-03  -4.8619966099547199e-03  -8.9023715814806545e-03  -7.3045312677045117e-03  -6.0386592037092544e-03  -4.2616309403472842e-03  -1.5690593428360862e-03  1.9501526913752495e-03  4.2803133778900951e-03  7.2016640802514036e-03  8.4816433796982751e-03  9.3603540506731076e-03  9.0658056227311372e-03  7.6294689227233703e-03  6.2720126724377179e-03  3.8054083547570481e-03  2.3195040818346363e-03  9.3613928268295723e-04  1.0485893389897863e-03  -1.2657743884331421e-03  -1.5858877461530654e-02  -2.3115327341973146e-02  -7.5312857407260356e-03  4.3043172690919720e-03  1.2412108641023156e-02  1.6577690110402610e-02  2.1156305955531279e-02  2.5153965209511436e-02  2.7848740418233219e-02  2.9669136765523081e-02  3.0996544164160748e-02  3.0127916306328453e-02  3.0090244293233773e-02  2.8443732065288971e-02  2.8174335034045258e-02  2.6511581698433602e-02  2.4627520402197043e-02  2.2284539156464701e-02  1.6157689427379912e-02  6.7838811618112487e-03  6.0813541594441772e-03  8.5661223821393382e-03  1.3560395191577902e-03  -1.3208260637711368e-03  -6.8813149296192326e-03  -9.3406530139354318e-03  -6.7906469833637238e-03  -5.8473519511609902e-04  8.1796350717941932e-03  1.2083428121788795e-02  7.8767507105641232e-03  -4.5935340423753680e-04  -7.1952380516047661e-03  -9.6230927684134993e-03  -8.5274501746286924e-03  -4.0085072412218894e-03  5.2553701890714957e-04  3.6848871149090623e-03  6.5142321702693750e-03  3.0300000000000000e+02  3.0300000000000000e+02  3.0300000000000000e+02  3.0300000000000000e+02  3.0300000000000000e+02  3.0300000000000000e+02  3.0300000000000000e+02  3.0300000000000000e+02  3.0300000000000000e+02  3.0300000000000000e+02  3.0300000000000000e+02  3.0300000000000000e+02  3.0300000000000000e+02  3.0300000000000000e+02  3.0300000000000000e+02  3.0300000000000000e+02  3.0300000000000000e+02  3.0300000000000000e+02  3.0300000000000000e+02  3.0300000000000000e+02  3.0300000000000000e+02  3.0300000000000000e+02  3.0300000000000000e+02  3.0300000000000000e+02  3.0300000000000000e+02  3.0300000000000000e+02  3.0300000000000000e+02  3.0300000000000000e+02  3.0300000000000000e+02  3.0300000000000000e+02  3.0300000000000000e+02  3.0300000000000000e+02  3.0300000000000000e+02  3.0300000000000000e+02  3.0300000000000000e+02  3.0300000000000000e+02  3.0300000000000000e+02  3.0300000000000000e+02  3.0300000000000000e+02  3.0300000000000000e+02  3.0300000000000000e+02  3.0300000000000000e+02  3.0300000000000000e+02  3.0300000000000000e+02  3.0300000000000000e+02  3.0300000000000000e+02  3.0300000000000000e+02  3.0300000000000000e+02  3.0300000000000000e+02  3.0300000000000000e+02  3.0300000000000000e+02  3.0300000000000000e+02  3.0300000000000000e+02  3.0300000000000000e+02  3.0300000000000000e+02  3.0300000000000000e+02  3.0300000000000000e+02  3.0300000000000000e+02  3.0300000000000000e+02  3.0300000000000000e+02  3.0300000000000000e+02  3.0300000000000000e+02  3.0300000000000000e+02  3.0300000000000000e+02  3.0300000000000000e+02  3.0300000000000000e+02  3.0300000000000000e+02  3.0300000000000000e+02  3.0300000000000000e+02  3.0300000000000000e+02  3.0300000000000000e+02  3.0300000000000000e+02  3.0300000000000000e+02  3.0300000000000000e+02  3.0300000000000000e+02  3.0300000000000000e+02  3.0300000000000000e+02  3.0300000000000000e+02  3.0300000000000000e+02  3.0300000000000000e+02  3.0300000000000000e+02  3.0300000000000000e+02  3.0300000000000000e+02  3.0300000000000000e+02  3.0300000000000000e+02  3.0300000000000000e+02  3.0300000000000000e+02  3.0300000000000000e+02  3.0300000000000000e+02  3.0300000000000000e+02  3.0300000000000000e+02  3.0300000000000000e+02  3.0300000000000000e+02  3.0300000000000000e+02  3.0300000000000000e+02  3.0300000000000000e+02  3.0300000000000000e+02  3.0300000000000000e+02  3.0300000000000000e+02  3.0300000000000000e+02  3.0300000000000000e+02  3.0300000000000000e+02  3.0300000000000000e+02  3.0300000000000000e+02  3.0300000000000000e+02  3.0300000000000000e+02  3.0300000000000000e+02  3.0300000000000000e+02  3.0300000000000000e+02  3.0300000000000000e+02  3.0300000000000000e+02  3.0300000000000000e+02  3.0300000000000000e+02  3.0300000000000000e+02  3.0300000000000000e+02  3.0300000000000000e+02  3.0300000000000000e+02  3.0300000000000000e+02  3.0300000000000000e+02  3.0300000000000000e+02  3.0300000000000000e+02  3.0300000000000000e+02  3.0300000000000000e+02  3.0300000000000000e+02  3.0300000000000000e+02  3.0300000000000000e+02  3.0300000000000000e+02  3.0300000000000000e+02  3.0300000000000000e+02  3.0300000000000000e+02  3.0300000000000000e+02  3.0300000000000000e+02  3.0300000000000000e+02  3.0300000000000000e+02  3.0300000000000000e+02  3.0300000000000000e+02  3.0300000000000000e+02  3.0300000000000000e+02  3.0300000000000000e+02  3.0300000000000000e+02  3.0300000000000000e+02  3.0300000000000000e+02  3.0300000000000000e+02  3.0300000000000000e+02  3.0300000000000000e+02  3.0300000000000000e+02  3.0300000000000000e+02  3.0300000000000000e+02  3.0300000000000000e+02  3.0300000000000000e+02  3.0300000000000000e+02  3.0300000000000000e+02  3.0300000000000000e+02  3.0300000000000000e+02  3.0300000000000000e+02  3.0300000000000000e+02  3.0300000000000000e+02  3.0300000000000000e+02  3.0300000000000000e+02  3.0300000000000000e+02  3.0300000000000000e+02  3.0300000000000000e+02  3.0300000000000000e+02  3.0300000000000000e+02  3.0300000000000000e+02  3.0300000000000000e+02  3.0300000000000000e+02  3.0300000000000000e+02  3.0300000000000000e+02  3.0300000000000000e+02  3.0300000000000000e+02  3.0300000000000000e+02  3.0300000000000000e+02  3.0300000000000000e+02  3.0300000000000000e+02  3.0300000000000000e+02  3.0300000000000000e+02  3.0300000000000000e+02  3.0300000000000000e+02  3.0300000000000000e+02  3.0300000000000000e+02  3.0300000000000000e+02  3.0300000000000000e+02  3.0300000000000000e+02  3.0300000000000000e+02  3.0300000000000000e+02  3.0300000000000000e+02  3.0300000000000000e+02  3.0300000000000000e+02  3.0300000000000000e+02  3.0300000000000000e+02  3.0300000000000000e+02  3.0300000000000000e+02  3.0300000000000000e+02  3.0300000000000000e+02  3.0300000000000000e+02  3.0300000000000000e+02  3.0300000000000000e+02  3.0300000000000000e+02  3.0300000000000000e+02  3.0300000000000000e+02  3.0300000000000000e+02  3.0300000000000000e+02  3.0300000000000000e+02  3.0300000000000000e+02  3.0300000000000000e+02  3.0300000000000000e+02  3.0300000000000000e+02  3.0300000000000000e+02  3.0300000000000000e+02  3.0300000000000000e+02  3.0300000000000000e+02  3.0300000000000000e+02  3.0300000000000000e+02  3.0300000000000000e+02  3.0300000000000000e+02  3.0300000000000000e+02  3.0300000000000000e+02  3.0300000000000000e+02  3.0300000000000000e+02  3.0300000000000000e+02  3.0300000000000000e+02  3.0300000000000000e+02  3.0300000000000000e+02  3.0300000000000000e+02  3.0300000000000000e+02  3.0300000000000000e+02  3.0300000000000000e+02  3.0300000000000000e+02  3.0300000000000000e+02  3.0300000000000000e+02  3.0300000000000000e+02  3.0300000000000000e+02  3.0300000000000000e+02  3.0300000000000000e+02  3.0300000000000000e+02  3.0300000000000000e+02  3.0300000000000000e+02  3.0300000000000000e+02  3.0300000000000000e+02  3.0300000000000000e+02  3.0300000000000000e+02  3.0300000000000000e+02  3.0300000000000000e+02  3.0300000000000000e+02  3.0300000000000000e+02  3.0300000000000000e+02  3.0300000000000000e+02  3.0300000000000000e+02  3.0300000000000000e+02  1.6709382914665071e+02  1.0228820682810648e+02  6.5266033790840396e+01  4.2521758796730580e+01  2.8015945031542714e+01  1.8558429360443988e+01  1.2274737298693939e+01  8.0961150948775558e+00  5.2775353532529561e+00  3.3716427172077754e+00  2.0815289702228079e+00  1.2079902312732529e+00  6.1697157227875110e-01  2.1891432843297101e-01  -4.0014201950116610e-02  -2.1336920237854801e-01  -3.2355825256740833e-01  -3.9058951392359975e-01  -4.2823096365844615e-01  -4.4627897379072784e-01  -4.5143310032184208e-01  -4.4799069396713553e-01  -4.3911725830686277e-01  -4.2669336492100007e-01  -4.1262883782206849e-01  -3.9722141751749995e-01  -3.8156856428328095e-01  -3.6597764964389301e-01  -3.5067351462403473e-01  -3.3589597127432530e-01  -3.2170656965921668e-01  -3.0821442572281488e-01  -2.9536794758599333e-01  -2.8323750753277627e-01  -2.7173141514358040e-01  -2.6087921140796760e-01  -2.5059334637279829e-01  -2.4088192935896843e-01  -2.3171238282447948e-01  -2.2302014873582182e-01  -2.1481687517762979e-01  -2.0704084693639868e-01  -1.9968111753026002e-01  -1.9269458050693805e-01  -1.8608324108171495e-01  -1.7979939146280158e-01  -1.7382145836176488e-01  -1.6813253012457038e-01  -1.6271850690026698e-01  -1.5757431688835663e-01  -1.5266217591055678e-01  -1.4798988662337551e-01  -1.4352510348404601e-01  -1.3926504900663894e-01  -1.3519746421656986e-01  -1.3130517311201628e-01  -1.2758520404946036e-01  -1.2401906402009111e-01  -1.2060731267909763e-01  -1.1733581425530748e-01  -1.1419485112237526e-01  -1.1118083730685209e-01  -1.0828798688809574e-01  -1.0551079496759420e-01  -1.0283940769928732e-01  -1.0027569849600355e-01  -9.7810414508362462e-02  -9.5432222695264635e-02  -9.3141040050324669e-02  -9.0938123964263470e-02  -8.8812551646910404e-02  -8.6767630220114772e-02  -8.4793407679890243e-02  -8.2888641806321633e-02  -8.1048484461275452e-02  -7.9272338455559838e-02  -7.7552402978058405e-02  -7.5891401135531292e-02  -7.4287113739527538e-02  -7.2732342622171764e-02  -7.1228383207156964e-02  -6.9774241406738408e-02  -6.8365024551839446e-02  -6.7001617012678524e-02  -6.5677808959665337e-02  -6.4393668095450524e-02  -6.3146869790370333e-02  -6.1938416545309995e-02  -6.0765064452199910e-02  -5.9627443026145470e-02  -5.8521930396280217e-02  -5.7447607336821013e-02  -5.6403716480879273e-02  -5.5387469459432681e-02  -5.4400793821044548e-02  -5.3441195909369556e-02  -5.2506075825672120e-02  -5.1595399362468222e-02  -5.0710661301605432e-02  -4.9847939867491538e-02  -4.9007614470816738e-02  -4.8188887516534558e-02  -4.7389777878491433e-02  -4.6611669913890777e-02  -4.5853885987775837e-02  -4.5113674801989849e-02  -4.4391331687798484e-02  -4.3686205368503678e-02  -4.2997631537114611e-02  -4.2325711934490383e-02  -4.1669328489585544e-02  -4.1027936188354486e-02  -4.0400988925276729e-02  -3.9788650351868876e-02  -3.9189469766675061e-02  -3.8604167802140973e-02  -3.8031368361223762e-02  -3.7470665035434780e-02  -3.6922796332526139e-02  -3.6386291246297199e-02  -3.5861138829424009e-02  -3.5347858611853800e-02  -3.4845404550036971e-02  -3.4352855819709975e-02  -3.3869666384868852e-02  -3.3396856987493583e-02  -3.2932457104762461e-02  -3.2478069018132404e-02  -3.2033243290192151e-02  -3.1596641355750230e-02  -3.1168457337988096e-02  -3.0747397547527797e-02  -3.0334649250812553e-02  -2.9929458867414355e-02  -2.9530811528915162e-02  -2.9139185774913735e-02  -2.8754924514648474e-02  -2.8378053064202713e-02  -2.8008313586923319e-02  -2.7644670676851283e-02  -2.7287130169237350e-02  -2.6935482199510703e-02  -2.6589470578100412e-02  -2.6249832303182230e-02  -2.5916851034261928e-02  -2.5588613061643409e-02  -2.5266250958286988e-02  -2.4948941652188954e-02  -2.4636836837529583e-02  -2.4329854209893430e-02  -2.4028278522559871e-02  -2.3731493821182264e-02  -2.3438910121848445e-02  -2.3151002915575241e-02  -2.2867348874267800e-02  -2.2588140906284412e-02  -2.2312974295619549e-02  -2.2042123267153307e-02  -2.1775095478144619e-02  -2.1512133960437215e-02  -2.1252872733732504e-02  -2.0997829656840841e-02  -2.0746347177177871e-02  -2.0498704371162677e-02  -2.0254241294928872e-02  -2.0013529946510140e-02  -1.9776336745563471e-02  -1.9542548171772440e-02  -1.9311612532118889e-02  -1.9083895269642437e-02  -1.8859039401572429e-02  -1.8637190340549965e-02  -1.8418465429552312e-02  -1.8202703866516651e-02  -1.7989569506328601e-02  -1.7778971076543183e-02  -1.7571099029012736e-02  -1.7366231926254107e-02  -1.7163717072237426e-02  -1.6963410379555423e-02  -1.6765667983199846e-02  -1.6570366940968979e-02  -1.6377688585752843e-02  -1.6187285835998835e-02  -1.5999030995958462e-02  -1.5813002921208196e-02  -1.5629177403027866e-02  -1.5447951291947577e-02  -1.5268888014083676e-02  -1.5091913382218387e-02  -1.4917399349751980e-02  -1.4744179198405866e-02  -1.4573005692324543e-02  -1.4403698796845589e-02  -1.4236281034145084e-02  -1.4070669458239862e-02  -1.3906919819001247e-02  -1.3744770480075464e-02  -1.3584552684742355e-02  -1.3425951485135030e-02  -1.3268950311614040e-02  -1.3113583766346486e-02  -1.2959957638557637e-02  -1.2808193514678795e-02  -1.2658092399451669e-02  -1.2509464359061629e-02  -1.2362664947181102e-02  -1.2216909228449443e-02  -1.2073029832650753e-02  -1.1930625925684335e-02  -1.1789711311926031e-02  -1.1649877768515934e-02  -1.1511419236434445e-02  -1.1374280910276490e-02  -1.1238354414065023e-02  -1.1103609994708189e-02  -1.0970218527218748e-02  -1.0837941216473660e-02  -1.0706918546068072e-02  -1.0577120335766372e-02  -1.0448569565236848e-02  -1.0321246435481737e-02  -1.0194928961356119e-02  -1.0069725111508157e-02  -9.9454819448873341e-03  -9.8225874563647817e-03  -9.7007846519844860e-03  -9.5798490081397576e-03  -9.4598990116002545e-03  -9.3410575555721142e-03  -9.2228892853199341e-03  -9.1059475956923389e-03  -8.9901024108022844e-03  -8.8752540510823059e-03  -8.7611606688180101e-03  -8.6480884098436624e-03  -8.5360363047123928e-03  -8.4247184902811762e-03  -8.3143042052394155e-03  -8.2046102753575399e-03  -8.0957149182738618e-03  -7.9877259997819736e-03  -7.8807384400621690e-03  -7.7739999825493997e-03  -7.6681990254034282e-03  -7.5628409270862840e-03  -7.4581359552255292e-03  -7.3544392980843037e-03  -7.2513093648256324e-03  2.7191813898779525e-02  4.4554097325971258e-03  2.5272146387904291e-02  1.6605025452663873e-03  -7.5760339212171774e-03  2.8594516906615394e-02  2.4369796605096639e-02  -1.9639277429420305e-02  -2.0001399013554900e-02  2.9307515559015035e-02  1.9467269225545186e-02  1.4318416257792427e-02  2.6361860589898353e-02  -1.2428415436564992e-02  -7.0751024035469292e-03  -1.9644139310409987e-02  -3.3099138749765798e-02  -5.5666786900762315e-02  -6.9479862284158755e-02  2.2019053560007440e-02  1.4965548375159305e-02  -3.4182205478472468e-03  2.4337025924825260e-02  -1.1111960812769340e-03  -1.4229542735889281e-02  2.1659038061879677e-02  2.8231364310649654e-02  1.6025557819331081e-02  2.9470050331893864e-02  -2.7946500174439694e-02  -3.0011536094932113e-02  1.3391912948396598e-02  2.4490246901186778e-02  1.0227703941064450e-02  1.3234491265599382e-02  3.5482453963426225e-02  -1.2303821283211251e-03  -2.0004953345885174e-02  -9.4633157888074724e-03  3.2954185968289626e-02  1.7530296281278859e-02  1.1630039068575003e-02  -1.0155956197123633e-01  -5.4744489495447621e-02  6.6040104741299345e-03  -3.6735591428568040e-02  1.5967217872455346e-02  1.4665021442858287e-02  3.4181523250543355e-02  -6.2469434385722805e-03  -1.4207639756089355e-02  -1.0006896159514422e-02  1.8241523587243205e-02  1.7108293584608816e-02  -2.5348004297403939e-02  4.8370457626937730e-02  -1.2993630162200908e-02  -8.6913662946536113e-03  1.8215813195575808e-01  3.6526613176024819e-01  -8.8522673788260883e-02  -2.6122191687046367e-02  -3.5074526350331051e-02  -4.9594216118236972e-02  4.9259385672664135e-02  2.4912140450632017e-01  1.6646138823305437e-01  -1.8625620432074236e-02  -2.0346654159962944e-02  3.0831910279587960e-01  -7.1308028969610956e-02  -1.0717148158450394e-01  -1.7619111423461772e-01  4.8021802664694663e-01  1.9773820902513836e-01  -1.6875479367423374e-01  5.7176918913401076e-01  -6.3401891053894474e-02  7.0364277889933116e-02  9.1061613288824811e-02  1.6977144411281209e-01  -4.6038168362152944e-02  -1.6508748780365255e-02  1.0501213392551600e+00  -7.4866423335542883e-03  -3.2045306638106579e-04  9.8437162380001067e-02  2.6086169934837061e-01  2.8481036600637749e-01  1.9520694261562796e-01  -2.2153981667023687e-01  -2.0734691227716107e-01  1.1003099119322022e+00  -1.4305891973124421e-01  5.0139159259718935e-01  4.9819741148016600e-01  -4.4557933367717892e-02  -1.4443557056232232e-02  -1.1355178560996429e-02  8.5181571347822860e-01  7.1510921073453038e-01  2.3505368392109340e+00  -3.6110002197968991e-02  -1.3869152925832360e-02  -1.1427625867077268e-02  2.8385704560617073e+00  -2.8999938392723749e-02  1.7681460200257841e+00  4.6967121061556155e-01  1.9537626018463030e+00  2.9631447076831683e+00  -2.3768175882408378e-02  -9.5715381702796334e-03  -9.2788313711715791e-03  -7.4282124551837787e-03  -2.9552785246945434e-02  -2.4741015533576913e-02  3.1758065407885097e+00  3.8767058868938555e+00  -2.0141152920905292e-02  -1.7188703893608874e-02  -3.8609308332564650e-03  -4.2155334219061709e-02  3.3665763823578283e+00  -9.5744294059573590e-02  4.2977106024810574e+00  6.4752769357740352e+00  5.7422898585645736e+00  1.9008235456968867e+00  4.4790614263073083e+00  3.8504170930771560e+00  -6.0116554593065072e-02  5.2806314753476080e+00  -1.6486229775609640e-01  1.3469240360812196e+00  4.9720618324348731e+00  -8.1893521653301545e-03  -2.1560589294937087e-02  -1.8729374441369170e-02  1.1112833956996093e+01  7.8224969954465919e+00  7.4610073400481784e+00  7.7996076793855167e+00  -1.1299620327052610e-01  -8.3017561725786101e-02  8.2863299387776888e+00  7.2802352337364935e+00  7.7738952059107271e+00  -3.3837400620823348e-02  1.1374655524829219e+01  1.1713892958886994e+01  -1.2665760152965339e-01  -4.9712208872113743e-02  1.1951803946238524e+01  1.0553561189845320e+01  1.0642929962113561e+01  1.1349968120973756e+01  1.3801403880727602e+01  7.1431886965502986e+00  -3.1470254309980589e-01  -3.4303630683962072e-01  1.0088933181191670e+01  -5.5034624027302893e-02  -1.8648735205247548e-03  -8.0342328389151965e-02  1.5279502309289684e+01  -7.1481657533318012e-03  -2.4136615035933745e-01  -1.6956978947703139e-01  1.4412071539417546e+01  1.4388126110589671e+01  1.2879573227960936e+01  1.5695401258322224e+01  1.2253852265857910e+01  -1.2894764186888634e-02  8.2833113620060916e-01  8.9911678072248371e+00  -1.5269380768780110e-02  -6.9631408225923550e-02  -1.2619095275486304e-02  -1.5175821854079785e-02  -1.6856216112131100e-02  -4.1049003774201169e-02  -1.1516077424366491e-02  -1.0197816470272602e-02  -2.0056851423307678e-01  -4.7577914458043061e-02  1.8720391858374064e+01  1.3990430180233213e+01  1.8027935006701451e+01  2.0606710247405712e+01  2.2533386102290553e+01  -3.6979174646572527e-01  -2.8540686840271950e-01  -3.7996574682496613e-02  2.4983002545628370e+01  2.1886699819799333e+01  -2.7002325557783036e-02  2.1840177679178716e+01  -8.2238215080814164e-03  2.6240718105233899e+01  2.5707194912792477e+01  -3.2391785081767710e-02  2.6275200413337235e+01  -3.6610857738072211e-02  2.3566219715102246e+01  1.9840962434010095e-02  2.0921470271961045e-02  -1.0620909208962810e-02  -2.6494951570121387e-02  -3.0894979019630047e-02  3.3595746530011077e+01  -1.4108536622084328e-01  -6.9797412853617263e-02  3.9601484915651227e+01  -1.4022570667170558e-02  3.4906800226890212e+01  -4.2538570026362091e-02  3.7973539323662870e+01  -9.1919983506921592e-03  3.2088247859775642e+01  4.0372609121293507e+01  2.3836780133391737e-02  2.8865569993657946e+01  -2.9877867199327563e-03  -2.1950741086932627e-02  -1.8572337757675431e-02  -1.1546374339513429e-02  -9.7492660784806034e-02  2.9886781613965289e-02  3.3729583226535624e+01  2.8200947713188029e+01  -2.0114332402114965e-02  -2.32753