<?xml version="1.0"?>
<VTKFile type="UnstructuredGrid"  version="0.1"  >
<UnstructuredGrid>
<Piece  NumberOfPoints="15540" NumberOfCells="30546">
<Points>
<DataArray  type="Float64"  NumberOfComponents="3"  format="ascii">0 0 0  -0.5 -0.5 0  0.5 -0.5 0  0.5 0 0  0.5 0.5 0  -0.5 0.5 0  -0.5 0.0001 0  -0.5 -0.0001 0  0.5 0.1 0  0.5 -0.1 0  -0.5 -0.1 0  -0.5 0.1 0  -0.4900000000000277 -0.5 0  -0.4800000000000555 -0.5 0  -0.4700000000000832 -0.5 0  -0.4600000000001109 -0.5 0  -0.4500000000001387 -0.5 0  -0.4400000000001664 -0.5 0  -0.4300000000001942 -0.5 0  -0.4200000000002219 -0.5 0  -0.4100000000002497 -0.5 0  -0.4000000000002774 -0.5 0  -0.3900000000003052 -0.5 0  -0.3800000000003328 -0.5 0  -0.3700000000003606 -0.5 0  -0.3600000000003883 -0.5 0  -0.3500000000004161 -0.5 0  -0.3400000000004438 -0.5 0  -0.3300000000004716 -0.5 0  -0.3200000000004993 -0.5 0  -0.3100000000005271 -0.5 0  -0.3000000000005548 -0.5 0  -0.2900000000005825 -0.5 0  -0.2800000000006103 -0.5 0  -0.2700000000006381 -0.5 0  -0.2600000000006658 -0.5 0  -0.2500000000006935 -0.5 0  -0.2400000000007212 -0.5 0  -0.230000000000749 -0.5 0  -0.2200000000007767 -0.5 0  -0.2100000000008044 -0.5 0  -0.2000000000008322 -0.5 0  -0.19000000000086 -0.5 0  -0.1800000000008877 -0.5 0  -0.1700000000009154 -0.5 0  -0.1600000000009431 -0.5 0  -0.1500000000009709 -0.5 0  -0.1400000000009986 -0.5 0  -0.1300000000010264 -0.5 0  -0.1200000000010541 -0.5 0  -0.1100000000010818 -0.5 0  -0.1000000000011096 -0.5 0  -0.09000000000113734 -0.5 0  -0.08000000000116503 -0.5 0  -0.07000000000119283 -0.5 0  -0.06000000000122058 -0.5 0  -0.05000000000124827 -0.5 0  -0.04000000000127607 -0.5 0  -0.03000000000130376 -0.5 0  -0.02000000000133151 -0.5 0  -0.01000000000135925 -0.5 0  -1.376121439022882e-12 -0.5 0  0.009999999998640763 -0.5 0  0.01999999999866864 -0.5 0  0.02999999999869629 -0.5 0  0.03999999999872406 -0.5 0  0.04999999999875182 -0.5 0  0.05999999999877947 -0.5 0  0.06999999999880724 -0.5 0  0.079999999998835 -0.5 0  0.08999999999886266 -0.5 0  0.09999999999889042 -0.5 0  0.1099999999989182 -0.5 0  0.1199999999989459 -0.5 0  0.1299999999989737 -0.5 0  0.1399999999990014 -0.5 0  0.1499999999990291 -0.5 0  0.1599999999990568 -0.5 0  0.1699999999990847 -0.5 0  0.1799999999991124 -0.5 0  0.1899999999991401 -0.5 0  0.1999999999991678 -0.5 0  0.2099999999991955 -0.5 0  0.2199999999992234 -0.5 0  0.2299999999992511 -0.5 0  0.2399999999992788 -0.5 0  0.2499999999993066 -0.5 0  0.2599999999993342 -0.5 0  0.269999999999362 -0.5 0  0.2799999999993897 -0.5 0  0.2899999999994175 -0.5 0  0.2999999999994452 -0.5 0  0.3099999999994729 -0.5 0  0.3199999999995007 -0.5 0  0.3299999999995284 -0.5 0  0.3399999999995562 -0.5 0  0.3499999999995839 -0.5 0  0.3599999999996116 -0.5 0  0.3699999999996393 -0.5 0  0.379999999999667 -0.5 0  0.3899999999996949 -0.5 0  0.3999999999997226 -0.5 0  0.4099999999997503 -0.5 0  0.419999999999778 -0.5 0  0.4299999999998058 -0.5 0  0.4399999999998336 -0.5 0  0.4499999999998613 -0.5 0  0.4599999999998891 -0.5 0  0.4699999999999167 -0.5 0  0.4799999999999445 -0.5 0  0.4899999999999722 -0.5 0  0.5 -0.4902110204681464 0  0.5 -0.4804459958734807 0  0.5 -0.4707048677450883 0  0.5 -0.4609875815766065 0  0.5 -0.4512940759251849 0  0.5 -0.4416242912883993 0  0.5 -0.4319781678689807 0  0.5 -0.4223556545383647 0  0.5 -0.4127566896324213 0  0.5 -0.4031812128200121 0  0.5 -0.3936291733057916 0  0.5 -0.3841005081172659 0  0.5 -0.3745951585781932 0  0.5 -0.3651130778999337 0  0.5 -0.3556541993788045 0  0.5 -0.3462184677228392 0  0.5 -0.3368058273705318 0  0.5 -0.3274162224888609 0  0.5 -0.3180495969712945 0  0.5 -0.3087058944357755 0  0.5 -0.299385058222682 0  0.5 -0.2900870313927414 0  0.5 -0.2808117567250807 0  0.5 -0.2715591844628491 0  0.5 -0.2623292564012653 0  0.5 -0.253121909553727 0  0.5 -0.2439371050851549 0  0.5 -0.2347747685524501 0  0.5 -0.2256348634421331 0  0.5 -0.2165173209784076 0  0.5 -0.207422087829958 0  0.5 -0.1983491207029381 0  0.5 -0.1892983550950482 0  0.5 -0.1802697378305253 0  0.5 -0.1712632154965152 0  0.5 -0.1622787344187354 0  0.5 -0.1533162406595534 0  0.5 -0.1443756800160514 0  0.5 -0.1354569980180493 0  0.5 -0.1265601399261414 0  0.5 -0.1176850622761093 0  0.5 -0.1088317009011999 0  0.5 -0.09166666666668973 0  0.5 -0.08333333333337943 0  0.5 -0.07500000000006915 0  0.5 -0.06666666666675886 0  0.5 -0.05833333333344858 0  0.5 -0.05000000000013693 0  0.5 -0.04166666666678191 0  0.5 -0.03333333333342643 0  0.5 -0.02500000000006916 0  0.5 -0.01666666666671188 0  0.5 -0.00833333333335548 0  0.5 0.008333333333318314 0  0.5 0.01666666666663358 0  0.5 0.02499999999994162 0  0.5 0.03333333333325101 0  0.5 0.04166666666655769 0  0.5 0.04999999999986843 0  0.5 0.05833333333322258 0  0.5 0.06666666666657715 0  0.5 0.07499999999993352 0  0.5 0.08333333333328992 0  0.5 0.09166666666664541 0  0.5 0.1088317009011616 0  0.5 0.1176850622760307 0  0.5 0.1265601399260203 0  0.5 0.1354569980178909 0  0.5 0.1443756800158549 0  0.5 0.153316240659315 0  0.5 0.1622787344184454 0  0.5 0.1712632154961752 0  0.5 0.1802697378301332 0  0.5 0.1892983550946039 0  0.5 0.1983491207024433 0  0.5 0.2074220878294123 0  0.5 0.216517320977811 0  0.5 0.2256348634414833 0  0.5 0.2347747685517479 0  0.5 0.2439371050844009 0  0.5 0.2531219095529224 0  0.5 0.2623292564004089 0  0.5 0.2715591844619371 0  0.5 0.2808117567241139 0  0.5 0.290087031391723 0  0.5 0.2993850582216101 0  0.5 0.3087058944347426 0  0.5 0.3180495969703129 0  0.5 0.3274162224879299 0  0.5 0.3368058273696494 0  0.5 0.3462184677220051 0  0.5 0.3556541993780186 0  0.5 0.3651130778991989 0  0.5 0.3745951585775107 0  0.5 0.3841005081166359 0  0.5 0.3936291733052134 0  0.5 0.4031812128194852 0  0.5 0.412756689631945 0  0.5 0.4223556545379392 0  0.5 0.431978167868607 0  0.5 0.4416242912880781 0  0.5 0.4512940759249164 0  0.5 0.4609875815763912 0  0.5 0.4707048677449264 0  0.5 0.4804459958733726 0  0.5 0.4902110204680924 0  0.4900000000000277 0.5 0  0.4800000000000555 0.5 0  0.4700000000000832 0.5 0  0.4600000000001109 0.5 0  0.4500000000001387 0.5 0  0.4400000000001664 0.5 0  0.4300000000001942 0.5 0  0.4200000000002219 0.5 0  0.4100000000002497 0.5 0  0.4000000000002774 0.5 0  0.3900000000003052 0.5 0  0.3800000000003328 0.5 0  0.3700000000003606 0.5 0  0.3600000000003883 0.5 0  0.3500000000004161 0.5 0  0.3400000000004438 0.5 0  0.3300000000004716 0.5 0  0.3200000000004993 0.5 0  0.3100000000005271 0.5 0  0.3000000000005548 0.5 0  0.2900000000005825 0.5 0  0.2800000000006103 0.5 0  0.2700000000006381 0.5 0  0.2600000000006658 0.5 0  0.2500000000006935 0.5 0  0.2400000000007212 0.5 0  0.230000000000749 0.5 0  0.2200000000007767 0.5 0  0.2100000000008044 0.5 0  0.2000000000008322 0.5 0  0.19000000000086 0.5 0  0.1800000000008877 0.5 0  0.1700000000009154 0.5 0  0.1600000000009431 0.5 0  0.1500000000009709 0.5 0  0.1400000000009986 0.5 0  0.1300000000010264 0.5 0  0.1200000000010541 0.5 0  0.1100000000010818 0.5 0  0.1000000000011096 0.5 0  0.09000000000113734 0.5 0  0.08000000000116503 0.5 0  0.07000000000119283 0.5 0  0.06000000000122058 0.5 0  0.05000000000124827 0.5 0  0.04000000000127607 0.5 0  0.03000000000130376 0.5 0  0.02000000000133151 0.5 0  0.01000000000135925 0.5 0  1.376121439022882e-12 0.5 0  -0.009999999998640763 0.5 0  -0.01999999999866864 0.5 0  -0.02999999999869629 0.5 0  -0.03999999999872406 0.5 0  -0.04999999999875182 0.5 0  -0.05999999999877947 0.5 0  -0.06999999999880724 0.5 0  -0.079999999998835 0.5 0  -0.08999999999886266 0.5 0  -0.09999999999889042 0.5 0  -0.1099999999989182 0.5 0  -0.1199999999989459 0.5 0  -0.1299999999989737 0.5 0  -0.1399999999990014 0.5 0  -0.1499999999990291 0.5 0  -0.1599999999990568 0.5 0  -0.1699999999990847 0.5 0  -0.1799999999991124 0.5 0  -0.1899999999991401 0.5 0  -0.1999999999991678 0.5 0  -0.2099999999991955 0.5 0  -0.2199999999992234 0.5 0  -0.2299999999992511 0.5 0  -0.2399999999992788 0.5 0  -0.2499999999993066 0.5 0  -0.2599999999993342 0.5 0  -0.269999999999362 0.5 0  -0.2799999999993897 0.5 0  -0.2899999999994175 0.5 0  -0.2999999999994452 0.5 0  -0.3099999999994729 0.5 0  -0.3199999999995007 0.5 0  -0.3299999999995284 0.5 0  -0.3399999999995562 0.5 0  -0.3499999999995839 0.5 0  -0.3599999999996116 0.5 0  -0.3699999999996393 0.5 0  -0.379999999999667 0.5 0  -0.3899999999996949 0.5 0  -0.3999999999997226 0.5 0  -0.4099999999997503 0.5 0  -0.419999999999778 0.5 0  -0.4299999999998058 0.5 0  -0.4399999999998336 0.5 0  -0.4499999999998613 0.5 0  -0.4599999999998891 0.5 0  -0.4699999999999167 0.5 0  -0.4799999999999445 0.5 0  -0.4899999999999722 0.5 0  -0.5 0.4902110204681464 0  -0.5 0.4804459958734807 0  -0.5 0.4707048677450883 0  -0.5 0.4609875815766065 0  -0.5 0.4512940759251849 0  -0.5 0.4416242912883993 0  -0.5 0.4319781678689807 0  -0.5 0.4223556545383647 0  -0.5 0.4127566896324213 0  -0.5 0.4031812128200121 0  -0.5 0.3936291733057916 0  -0.5 0.3841005081172659 0  -0.5 0.3745951585781932 0  -0.5 0.3651130778999337 0  -0.5 0.3556541993788045 0  -0.5 0.3462184677228392 0  -0.5 0.3368058273705318 0  -0.5 0.3274162224888609 0  -0.5 0.3180495969712945 0  -0.5 0.3087058944357755 0  -0.5 0.299385058222682 0  -0.5 0.2900870313927414 0  -0.5 0.2808117567250807 0  -0.5 0.2715591844628491 0  -0.5 0.2623292564012653 0  -0.5 0.253121909553727 0  -0.5 0.2439371050851549 0  -0.5 0.2347747685524501 0  -0.5 0.2256348634421331 0  -0.5 0.2165173209784076 0  -0.5 0.207422087829958 0  -0.5 0.1983491207029381 0  -0.5 0.1892983550950482 0  -0.5 0.1802697378305253 0  -0.5 0.1712632154965152 0  -0.5 0.1622787344187354 0  -0.5 0.1533162406595534 0  -0.5 0.1443756800160514 0  -0.5 0.1354569980180493 0  -0.5 0.1265601399261414 0  -0.5 0.1176850622761093 0  -0.5 0.1088317009011999 0  -0.5 0.09167500000001694 0  -0.5 0.08335000000003931 0  -0.5 0.07502500000006167 0  -0.5 0.06670000000008947 0  -0.5 0.05837500000011001 0  -0.5 0.0500500000001328 0  -0.5 0.0417250000001127 0  -0.5 0.03340000000008944 0  -0.5 0.02507500000006573 0  -0.5 0.01675000000004653 0  -0.5 0.008425000000027341 
[...]
<PointData  Scalars="f_40"> 
<DataArray  type="Float64"  Name="f_40"  format="ascii">-2.9963438296629702e-02  4.9781198007345190e-05  -2.4146322959574815e-03  -4.0493387941195239e-04  3.0300000000000000e+02  3.0300000000000000e+02  -1.8564592122068220e-07  -1.7674226716903339e-07  -4.4586164979216607e-04  -4.2793930195349835e-04  7.2848785561116924e-06  6.5972075073973359e-06  5.2108522066714922e-05  5.2889557600344839e-05  5.3043356645895847e-05  5.1152179200996592e-05  4.8748886304261816e-05  4.5699618542392311e-05  4.2325058027000826e-05  3.7229310845928410e-05  3.2898213145656231e-05  2.7717204227770961e-05  2.2841566349818341e-05  1.7302626245161168e-05  1.1191666832195568e-05  5.9284803605687513e-06  9.4237465334405190e-07  -5.2827338248819410e-06  -1.1046395105704422e-05  -1.8226521495200018e-05  -2.4411265373540912e-05  -3.1614886156564970e-05  -3.8727354623809400e-05  -4.5586964179902612e-05  -5.3122275142349338e-05  -6.0531270160871051e-05  -6.8721157298980788e-05  -7.5705464276665013e-05  -8.3942654154621059e-05  -9.4014369578249783e-05  -1.0270157123985013e-04  -1.1184040744934915e-04  -1.2129313891044056e-04  -1.3020516170461342e-04  -1.4058523088700199e-04  -1.5107619226591829e-04  -1.6247160578673213e-04  -1.7316790380683480e-04  -1.8393762917410508e-04  -1.9557395787597449e-04  -2.0757123260149339e-04  -2.1952573659832098e-04  -2.3208348657171527e-04  -2.4518662446417633e-04  -2.5772070632508004e-04  -2.7123696766860481e-04  -2.8403638438892573e-04  -2.9931122445972540e-04  -3.1173185584155332e-04  -3.2588562512454527e-04  -3.3930192172767473e-04  -3.5334545241438631e-04  -3.6730620752799205e-04  -3.7986743266918725e-04  -3.9475977499277992e-04  -4.1023508638754279e-04  -4.2330556322037416e-04  -4.3650401372215025e-04  -4.5045114631051941e-04  -4.6267827866785849e-04  -4.7685000825214660e-04  -4.8950766763623712e-04  -5.0356984742153132e-04  -5.1776438983368344e-04  -5.2907224430975418e-04  -5.4180836133215144e-04  -5.5379193417351576e-04  -5.6600511402964213e-04  -5.7975977136200173e-04  -5.9077673386261987e-04  -6.0271558338296258e-04  -6.1432369476315083e-04  -6.2626784382149522e-04  -6.3952023947240770e-04  -6.5169999922312053e-04  -6.6140050499262902e-04  -6.7312285188870201e-04  -6.8431790640210261e-04  -6.9576597082865986e-04  -7.0800292441543949e-04  -7.2175438603598564e-04  -7.3325800720041375e-04  -7.4842463657147113e-04  -7.6186288256150628e-04  -7.7651923515678330e-04  -7.9019029885321504e-04  -8.0734663070255552e-04  -8.2583068458072972e-04  -8.4555025232861886e-04  -8.7117615726150686e-04  -8.9439597528053133e-04  -9.2062093248776596e-04  -9.5727639190592087e-04  -1.0009210232205603e-03  -1.0435727450241027e-03  -1.1029078017704321e-03  -1.1848874263066726e-03  -1.2961196651428465e-03  -1.4365377767634206e-03  -1.6160020642580109e-03  -1.9394067446933771e-03  -1.7081975266027085e-03  -1.2089256646124111e-03  -9.7817318990948000e-04  -8.5817828219249151e-04  -7.8265966425151285e-04  -7.3284918721900228e-04  -7.0112101304356652e-04  -6.7869719414357375e-04  -6.5978749900082721e-04  -6.4674786338427253e-04  -6.3350124255663956e-04  -6.2474977581608799e-04  -6.1470264764007716e-04  -6.0804869578557014e-04  -6.0022288802839894e-04  -5.9418955452231800e-04  -5.8765877508252400e-04  -5.8182154424792564e-04  -5.7596071296464081e-04  -5.6967321299817534e-04  -5.6374541299209250e-04  -5.5799225410074716e-04  -5.5181017384650427e-04  -5.4524925891410395e-04  -5.3869394803114385e-04  -5.3192329280522647e-04  -5.2586678856657396e-04  -5.1994433169342213e-04  -5.1290841829428459e-04  -5.0618117032016658e-04  -4.9909176955010865e-04  -4.9264451909207584e-04  -4.8547723576607789e-04  -4.7954043673548174e-04  -4.7312552135437278e-04  -4.6686957086934010e-04  -4.6003502922575579e-04  -4.5431242096302806e-04  -4.4794248130241606e-04  -4.4299588883730612e-04  -4.3759078944308530e-04  -4.3254676150613274e-04  -4.2329577789783064e-04  -4.2011340854844936e-04  -4.1627382567965100e-04  -4.1356919336092647e-04  -4.1165929669352178e-04  -4.0793633038548174e-04  -4.0643941994047923e-04  -4.0541959531929203e-04  -4.0491234641890599e-04  -4.0412735178735110e-04  -4.0415276924974140e-04  -4.0558452314276496e-04  -4.0726659610653348e-04  -4.0882138541245544e-04  -4.1112572509066072e-04  -4.1452007288192379e-04  -4.1726926850661230e-04  -4.2061984096412164e-04  -4.2554492546621221e-04  -4.3034710209471715e-04  -4.3434630696400511e-04  -4.3982600434417616e-04  -4.5258332625369382e-04  -4.5960272944285213e-04  -4.6688730819564655e-04  -4.7354528542100873e-04  -4.8229411471548145e-04  -4.8994684301103793e-04  -4.9919307928157598e-04  -5.0748985091501842e-04  -5.1656493031350360e-04  -5.2462988587131671e-04  -5.3430699234653005e-04  -5.4298060530339615e-04  -5.5269553080588174e-04  -5.6216226236070104e-04  -5.7119298667787806e-04  -5.7993607108407902e-04  -5.8849948984680052e-04  -5.9754621886281591e-04  -6.0634586362562869e-04  -6.1517688591004340e-04  -6.2393670096694200e-04  -6.3111276716029544e-04  -6.3930355573858788e-04  -6.4604693268573653e-04  -6.5381322900117712e-04  -6.6094584541589584e-04  -6.6731483696754130e-04  -6.7273597992023517e-04  -6.7928652593445167e-04  -6.8388613981454208e-04  -6.8967863190420278e-04  -6.9405691929240096e-04  -6.9878544999938557e-04  -7.0267031367339441e-04  -7.0581588178589044e-04  -7.0984487778167087e-04  -7.1159887985745233e-04  -7.5270574853278393e-04  1.8899795027730534e-03  -1.2418762354962255e-01  7.5864824729448055e-02  -1.3806487422151994e+00  3.0300000000000000e+02  3.0300000000000000e+02  3.0300000000000000e+02  3.0300000000000000e+02  3.0300000000000000e+02  3.0300000000000000e+02  3.0300000000000000e+02  3.0300000000000000e+02  3.0300000000000000e+02  3.0300000000000000e+02  3.0300000000000000e+02  3.0300000000000000e+02  3.0300000000000000e+02  3.0300000000000000e+02  3.0300000000000000e+02  3.0300000000000000e+02  3.0300000000000000e+02  3.0300000000000000e+02  3.0300000000000000e+02  3.0300000000000000e+02  3.0300000000000000e+02  3.0300000000000000e+02  3.0300000000000000e+02  3.0300000000000000e+02  3.0300000000000000e+02  3.0300000000000000e+02  3.0300000000000000e+02  3.0300000000000000e+02  3.0300000000000000e+02  3.0300000000000000e+02  3.0300000000000000e+02  3.0300000000000000e+02  3.0300000000000000e+02  3.0300000000000000e+02  3.0300000000000000e+02  3.0300000000000000e+02  3.0300000000000000e+02  3.0300000000000000e+02  3.0300000000000000e+02  3.0300000000000000e+02  3.0300000000000000e+02  3.0300000000000000e+02  3.0300000000000000e+02  3.0300000000000000e+02  3.0300000000000000e+02  3.0300000000000000e+02  3.0300000000000000e+02  3.0300000000000000e+02  3.0300000000000000e+02  3.0300000000000000e+02  3.0300000000000000e+02  3.0300000000000000e+02  3.0300000000000000e+02  3.0300000000000000e+02  3.0300000000000000e+02  3.0300000000000000e+02  3.0300000000000000e+02  3.0300000000000000e+02  3.0300000000000000e+02  3.0300000000000000e+02  3.0300000000000000e+02  3.0300000000000000e+02  3.0300000000000000e+02  3.0300000000000000e+02  3.0300000000000000e+02  3.0300000000000000e+02  3.0300000000000000e+02  3.0300000000000000e+02  3.0300000000000000e+02  3.0300000000000000e+02  3.0300000000000000e+02  3.0300000000000000e+02  3.0300000000000000e+02  3.0300000000000000e+02  3.0300000000000000e+02  3.0300000000000000e+02  3.0300000000000000e+02  3.0300000000000000e+02  3.0300000000000000e+02  3.0300000000000000e+02  3.0300000000000000e+02  3.0300000000000000e+02  3.0300000000000000e+02  3.0300000000000000e+02  3.0300000000000000e+02  3.0300000000000000e+02  3.0300000000000000e+02  3.0300000000000000e+02  3.0300000000000000e+02  3.0300000000000000e+02  3.0300000000000000e+02  3.0300000000000000e+02  3.0300000000000000e+02  3.0300000000000000e+02  3.0300000000000000e+02  3.0300000000000000e+02  3.0300000000000000e+02  3.0300000000000000e+02  3.0300000000000000e+02  -8.9929784624525477e-01  8.8396909292869794e-02  -8.4529732866828147e-02  1.6631184957209351e-03  9.1385111122041832e-05  1.1171033681676649e-04  1.1107579289902075e-04  1.0982190041920144e-04  1.0820807519006032e-04  1.0698773968275171e-04  1.0574763199158443e-04  1.0358833487458757e-04  1.0147611891321467e-04  9.9904727841949631e-05  9.7110445552765361e-05  9.5373454330667661e-05  9.2928519680503859e-05  9.0064514223232284e-05  8.7513674500663290e-05  8.4480985053359740e-05  8.2216035459332926e-05  7.8359841318446468e-05  7.5497805681320798e-05  7.2102890884882733e-05  6.8203965127586083e-05  6.4961858023941953e-05  6.1609204629505166e-05  5.8363384229866779e-05  5.3810169150234328e-05  5.0510055290491887e-05  4.5670250491508668e-05  4.2528257740852285e-05  3.9341883338180151e-05  3.4706819398390810e-05  3.1394032047592239e-05  2.7779969510457179e-05  2.4156162247946846e-05  2.0430693735954820e-05  1.7130194763926541e-05  1.4273269314699528e-05  1.1455851293815590e-05  9.0179929056582681e-06  4.5351324867461228e-06  3.0253499762073699e-06  1.6350106755579869e-06  8.0505963425022754e-07  1.2319629889397121e-07  -4.6876414358425904e-07  -5.5582688120363597e-07  -5.2465366679792165e-07  -4.0180206603224314e-07  -3.1224143243763456e-07  -2.0731356703180576e-07  -5.1174816273752463e-07  -1.1571856714991198e-06  -1.5294569020217959e-06  -1.6947248273790299e-06  -1.2035777151547010e-06  -2.6911545705069566e-07  1.1288429991669624e-06  2.3709308658343923e-06  4.7205159279795299e-06  8.2554876790884758e-06  1.1336885753994247e-05  1.4543404473518482e-05  1.9455566809281218e-05  2.3136874059421270e-05  2.7657880938568667e-05  3.3427802857804222e-05  3.7042355710224590e-05  4.2527691798189726e-05  4.9849565178299774e-05  5.5351627159134723e-05  6.0717679877987657e-05  6.8041037058041905e-05  7.1896379332280353e-05  7.8421896757978639e-05  8.7750211860481719e-05  9.4159663728886052e-05  1.0045753446654645e-04  1.0898541479750281e-04  1.1256129699920204e-04  1.1986702920399828e-04  1.3111708416478133e-04  1.3823745667115072e-04  1.4533429621643045e-04  1.5479800949919062e-04  1.5800943148580103e-04  1.6596830153378693e-04  1.7886190738380218e-04  1.8562721427458267e-04  1.9383167634049272e-04  2.0484570168980806e-04  2.0824508096965307e-04  2.1699073943262005e-04  2.3112798708361149e-04  2.3845336622615960e-04  2.4686462441514601e-04  2.5817776228373782e-04  2.6026836072655900e-04  2.6754150163001389e-04  2.8143247146131153e-04  2.8492488798301035e-04  2.8878762419696163e-04  2.9379205543242733e-04  3.0217610888397278e-04  2.5954960872534431e-04  -8.5935853032386156e-03  -5.2010732114743646e-03  3.2354321929640631e-04  3.0556817643724994e-04  2.9268234867978600e-04  2.8918385460687467e-04  2.8671140010895529e-04  2.8183383279265818e-04  2.6818210355243648e-04  2.6085602216273276e-04  2.5884963038949913e-04  2.4888446988751458e-04  2.4022318631844610e-04  2.3108186851343628e-04  2.1645043867137768e-04  2.0763387146094584e-04  2.0430941115943255e-04  1.9398961903621467e-04  1.8585626373986367e-04  1.7781155187680263e-04  1.6487241520248574e-04  1.5688168720495989e-04  1.5342679006892014e-04  1.4388711667760103e-04  1.3677154343546026e-04  1.2974568495396896e-04  1.1893288881901296e-04  1.1172643062946544e-04  1.0799864982908630e-04  9.9544294322787978e-05  9.3214691111985138e-05  8.7017842391880491e-05  7.8178465976074847e-05  7.1903210037643100e-05  6.8055063829064238e-05  6.0881319825811975e-05  5.5509431379775095e-05  5.0219950191843361e-05  4.3278469462808669e-05  3.7949067965799572e-05  3.4300646977556497e-05  2.8589642642821774e-05  2.4239832225075071e-05  2.0589578300006419e-05  1.5759435123129140e-05  1.2559853223023258e-05  9.4227657152612699e-06  5.8423772350144367e-06  3.3258208692180227e-06  1.9377762695309835e-06  4.9805252672831047e-07  -6.5640967668567288e-07  -1.3329644669871852e-06  -1.3024349497376859e-06  -1.0292343535109583e-06  -4.7358759935779346e-07  -1.9477448559352997e-07  -2.7818708575365269e-07  -3.4456288399080455e-07  -4.1958063929715328e-07  -3.7476733012618606e-07  -2.2007782761151372e-07  4.6010543269703396e-07  1.2361022312683685e-06  2.1529525005603843e-06  3.6138452123269472e-06  5.2017006116141780e-06  9.7394477056615226e-06  1.2088122429644160e-05  1.5024759589443299e-05  1.7830897221485015e-05  2.1006066196783984e-05  2.4490966583501245e-05  2.7941046104118836e-05  3.1340566378536622e-05  3.4241311355828882e-05  3.8424365481824536e-05  4.1345442259199726e-05  4.3988179179822712e-05  4.8131337499068356e-05  5.0849379470068046e-05  5.4474305014920446e-05  5.7045362743754820e-05  5.9588407864387208e-05  6.1786328630406736e-05  6.4430583245380599e-05  6.6638956335270436e-05  6.8255122272632140e-05  7.0322257834407411e-05  7.1320310294018373e-05  7.2313019046661164e-05  7.3182418050120093e-05  7.3737237523400812e-05  7.4079561762883627e-05  7.3560672496848783e-05  7.3294148785152608e-05  7.2672157291302173e-05  7.1228082796513382e-05  7.0300063096301988e-05  6.8184796455794935e-05  6.5543699996685825e-05  6.3069573473131018e-05  6.0211850420246718e-05  5.6299450961707278e-05  5.2052493723995250e-05  4.7287154410845495e-05  4.3303841892957301e-05  3.9349876856561351e-05  3.9889867030459470e-05  7.8199676225890159e-06  9.3973749254794600e-06  1.0781957737789399e-05  1.1768085873614483e-05  1.3124626034659872e-05  1.3896208602901417e-05  1.5184243568292201e-05  1.5975808379397545e-05  1.6747448215481559e-05  1.8064362861683065e-05  1.8928995769857462e-05  1.9934891524685709e-05  2.0869599945360047e-05  2.1939124358387087e-05  2.3432767648216297e-05  2.4229423850746812e-05  2.5724949594097653e-05  2.6813761241895910e-05  2.7652709717885449e-05  2.9369641436063332e-05  3.0109884976207658e-05  3.1763416068439014e-05  3.2357372707907589e-05  3.3677926339204626e-05  3.5251923645667503e-05  3.5720888894244957e-05  3.6784808288281493e-05  3.8099903508194905e-05  3.8075171693829622e-05  3.8519717173795294e-05  3.9629747255282943e-05  3.9522067305886944e-05  3.9359722947646349e-05  3.9362563415460750e-05  3.7668702672395610e-05  3.8100611089664491e-05  3.6358999198682460e-05  3.4529335057065637e-05  3.2223524483907991e-05  2.9474087384879788e-05  2.6252163412544366e-05  2.1736650307538518e-05  1.7766970829205837e-05  1.1360500522626392e-05  3.8070907302586580e-06  -3.0537826731185258e-06  -1.4236446184162143e-05  -2.3034886312558804e-05  -3.6357827756257998e-05  -5.3429797364361447e-05  -7.1533807756249347e-05  -9.7599228789425161e-05  -1.2301549197396157e-04  -1.5723195839435400e-04  -2.0526921847136538e-04  -2.4487891748739977e-04  -3.1020605000188289e-04  -3.7262606594288020e-04  -4.3869129504068508e-04  -5.1462755207218216e-04  -5.7582311057332008e-04  -6.3380382863853285e-04  -6.9524191466989156e-04  -7.3999330859663792e-04  -7.7307477838995449e-04  -7.9923832904086126e-04  -8.1811670236458373e-04  -8.2938372537789214e-04  -8.3097533708741318e-04  -8.2986161065742023e-04  -8.2529391402809968e-04  -8.2271645975131712e-04  -8.0956623054213503e-04  -7.9786982929286614e-04  -7.8932931896216827e-04  -7.7796681027780378e-04  -7.6398045206047839e-04  -7.5492511639506138e-04  -7.4106475109927798e-04  -7.2836329172074066e-04  -7.1997152619578911e-04  -7.0684378696834224e-04  -6.9597261619729880e-04  -6.8485013563625340e-04  -6.7438748716694083e-04  -6.6492729701678828e-04  -6.5510669563844911e-04  -6.4545467022143646e-04  -6.3610371423863856e-04  -6.2702101495169761e-04  -6.1898039123807404e-04  -6.1025484699099141e-04  -6.0171441430564127e-04  -5.9319115712441652e-04  -5.8504314544253935e-04  -5.7733368618734281e-04  -5.6959073930952346e-04  -5.6151679541596776e-04  -5.5323748974876459e-04  -5.4541941602790516e-04  -5.3750060463338492e-04  -5.2909084243536741e-04  -5.2111301923382257e-04  -5.1354706580344868e-04  -5.0475185141522522e-04  -4.9709815673805999e-04  -4.8800624361106381e-04  -4.7918526386738690e-04  -4.7093670052513603e-04  -4.6177344014780374e-04  -4.5281161728266515e-04  8.2685065797171455e-06  9.5418160260455087e-06  1.0605976953439575e-05  1.1344776511682518e-05  1.2428070547186515e-05  1.2975468171195503e-05  1.4010350931485839e-05  1.4613935178433831e-05  1.5179375347643628e-05  1.6287178715287227e-05  1.6973741375148594e-05  1.7778670775144198e-05  1.8562317834614116e-05  1.9468331111292150e-05  2.0751175000502328e-05  2.1378918300986008e-05  2.2669509246895371e-05  2.3697420299712436e-05  2.4343211209294199e-05  2.5861424487535822e-05  2.6464384073712520e-05  2.7993608390270323e-05  2.8484839937348783e-05  2.9575749870261633e-05  3.1064405844064687e-05  3.1328250888691436e-05  3.2244258862022446e-05  3.3525081272601938e-05  3.3367421101669255e-05  3.3738724716320756e-05  3.4791039223317790e-05  3.4497783358528061e-05  3.4335114183385148e-05  3.4295395458566741e-05  3.2448054200719872e-05  3.2987892898649124e-05  3.1182020102617955e-05  2.9286801495984826e-05  2.7047295462323109e-05  2.4414384078990052e-05  2.0996629516372756e-05  1.6631941763034670e-05  1.2851428872058800e-05  6.5340673352463168e-06  -9.1818021504859351e-07  -7.6336155060072965e-06  -1.8432965627396290e-05  -2.7295276799729420e-05  -3.9854320948877130e-05  -5.6204511941710215e-05  -7.3637958093950476e-05  -9.8012540704976055e-05  -1.2285426431442984e-04  -1.5426377441825703e-04  -1.9842274386936966e-04  -2.3657596015962910e-04  -2.9708543299016932e-04  -3.5660112376708540e-04  -4.1828371810984685e-04  -4.9219618369912284e-04  -5.5266391212625333e-04  -6.1006232074513464e-04  -6.7230014164870418e-04  -7.1988237758375260e-04  -7.5486113980039468e-04  -7.8494439456640839e-04  -8.0657314593146753e-04  -8.2168025459804011e-04  -8.2613511138661855e-04  -8.2849703211649119e-04  -8.2644355097515130e-04  -8.2646866375648187e-04  -8.1514683221067927e-04  -8.0522865832625772e-04  -7.9804169060568959e-04  -7.8798337217997512e-04  -7.7470485931206646e-04  -7.6642775063834497e-04  -7.5309136713421496e-04  -7.4073979921363442e-04  -7.3251472984433642e-04  -7.1934299208782897e-04  -7.0842408702555292e-04  -6.9724069395769113e-04  -6.8622383980733058e-04  -6.7638755254311193e-04  -6.6595091126331622e-04  -6.5568075893912580e-04  -6.4565974061659348e-04  -6.3561546811067443e-04  -6.2673695387774385e-04  -6.1708553555523261e-04  -6.0754360503777920e-04  -5.9809203420178576e-04  -5.8868647936808271e-04  -5.7999024395089969e-04  -5.7119177521517935e-04  -5.6172508794022878e-04  -5.5234536046252841e-04  -5.4319230160577981e-04  -5.3388167642774633e-04  -5.2409081533857157e-04  -5.1482189020520994e-04  -5.0591918491998099e-04  -4.9579096351050865e-04  -4.8685447271284407e-04  -4.7628746765059771e-04  -4.6633183650912017e-04  -4.5640098280006288e-04  -4.4601287897410105e-04  -4.3550327264094130e-04  -2.8592053624140471e-02  -1.5655104649872562e-02  -9.4348741313040885e-03  -6.2334950463257032e-03  -4.5775568787918414e-03  -3.4984141935621451e-03  -2.7749359771341189e-03  -2.3303031279683522e-03  -1.9965867912045488e-03  -1.7619500675632336e-03  -1.5865788463590093e-03  -1.4365415013326654e-03  -1.3257953406876966e-03  -1.2290885193752775e-03  -1.1547710224838871e-03  -1.0876317542051364e-03  -1.0346586154143930e-03  -9.8958837962483137e-04  -9.4720034412726958e-04  -9.1019790910267027e-04  -8.7998273727211214e-04  -8.4793503543918530e-04  -8.2388784722826729e-04  -8.0183486652894557e-04  -7.7897798605824746e-04  -7.5859703109057213e-04  -7.4020977324864938e-04  -7.2357184023017450e-04  -7.0816955620371983e-04  -6.9265263474867428e-04  -6.7879130888498236e-04  -6.6490119218583687e-04  -6.5212484813081289e-04  -6.3986695484596087e-04  -6.2854760712847144e-04  -6.1719295813053804e-04  -6.0586596126797356e-04  -5.9474420564028184e-04  -5.8414312101320940e-04  -5.7408284586236188e-04  -5.6374631340848499e-04  -5.5334724289486518e-04  -5.4345846110759593e-04  -5.3339632105617394e-04  -5.2346846960479529e-04  -5.1292958219094603e-04  -5.0246346910427970e-04  -4.9221427715660283e-04  -4.8165176796790627e-04  -4.7079469120862372e-04  -4.5984636441553592e-04  -4.4904458509281226e-04  -4.3711544100989274e-04  -4.2597112784021550e-04  -4.1357708618520328e-04  -1.8991665705796044e-04  -3.1744057267059353e-05  -4.2160089284539755e-04  -5.66712285353